<UPF version="2.0.1">
  <PP_INFO>

 This pseudopotential file has been produced using the code
 ONCVPSP  (Optimized Norm-Conservinng Vanderbilt PSeudopotential)
 scalar-relativistic version 1.1.1, 08/28/2013 by D. R. Hamann
 The code is available through a link at URL www.mat-simresearch.com.
 Documentation with the package provides a full discription of the
 input data below.


 While it is not required under the terms of the GNU GPL, it is
 suggested that you cite D. R. Hamann, Phys. Rev. B 88, 085117 (2013)
 in any publication using these pseudopotentials.

    <PP_INPUTFILE>
# ATOM AND REFERENCE CONFIGURATION
# atsym  z    nc    nv    iexc   psfile
  Na 11.00     1     3     3      upf
#
#   n    l    f        energy (Ha)
    1    0    2.00
    2    0    2.00
    2    1    6.00
    3    0    1.00
#
# PSEUDOPOTENTIAL AND OPTIMIZATION
# lmax
    2
#
#   l,   rc,     ep,   ncon, nbas, qcut
    0    1.82   -2.07    4    7    6.32
    1    2.27   -1.06    4    7    6.32
    2    2.27    0.20    5    9    6.32
#
# LOCAL POTENTIAL
# lloc, lpopt,  rc(5),   dvloc0
    4    5      1.52       0.00
#
# VANDERBILT-KLEINMAN-BYLANDER PROJECTORs
# l, nproj, debl
    0    2    1.9661
    1    2    1.5000
    2    2    1.5000
#
# MODEL CORE CHARGE
# icmod, fcfact
    0    0.00
#
# LOG DERIVATIVE ANALYSIS
# epsh1, epsh2, depsh
   -6.00    2.00    0.02
#
# OUTPUT GRID
# rlmax, drl
    5.00    0.01
#
# TEST CONFIGURATIONS
# ncnf
    3
# nvcnf
#   n    l    f
    3
    2    0    2.00
    2    1    6.00
    3    0    1.00
#
    2
    2    0    2.00
    2    1    6.00
#
    3
    2    0    2.00
    2    1    6.00
    3    1    1.00
#
    </PP_INPUTFILE>
  </PP_INFO>
  <!--                               -->
  <!-- END OF HUMAN READABLE SECTION -->
  <!--                               -->
    <PP_HEADER
       generated="Generated using ONCVPSP code by D. R. Hamann"
       author="anonymous"
       date="140912"
       comment=""
       element="Na"
       pseudo_type="NC"
       relativistic="scalar"
       is_ultrasoft="F"
       is_paw="F"
       is_coulomb="F"
       has_so="F"
       has_wfc="F"
       has_gipaw="F"
       core_correction="F"
       functional="LDA"
       z_valence="    9.00"
       total_psenergy="  -4.14524069960E+01"
       rho_cutoff="   1.18079863370E+02"
       l_max="2"
       l_local="-1"
       mesh_size="  1138"
       number_of_wfc="0"
       number_of_proj="6"/>
 <PP_MESH>
   <PP_R type="real"  size="1138" columns="8">
 0.449644313E-04 0.455527849E-04 0.461488371E-04 0.467526885E-04 0.473644412E-04 0.479841986E-04 0.486120655E-04 0.492481479E-04
 0.498925534E-04 0.505453909E-04 0.512067706E-04 0.518768044E-04 0.525556055E-04 0.532432886E-04 0.539399700E-04 0.546457674E-04
 0.553608000E-04 0.560851887E-04 0.568190560E-04 0.575625258E-04 0.583157238E-04 0.590787773E-04 0.598518153E-04 0.606349683E-04
 0.614283688E-04 0.622321509E-04 0.630464503E-04 0.638714048E-04 0.647071536E-04 0.655538382E-04 0.664116014E-04 0.672805884E-04
 0.681609460E-04 0.690528230E-04 0.699563700E-04 0.708717398E-04 0.717990871E-04 0.727385686E-04 0.736903432E-04 0.746545715E-04
 0.756314167E-04 0.766210438E-04 0.776236200E-04 0.786393147E-04 0.796682997E-04 0.807107489E-04 0.817668383E-04 0.828367465E-04
 0.839206544E-04 0.850187450E-04 0.861312040E-04 0.872582194E-04 0.883999816E-04 0.895566837E-04 0.907285210E-04 0.919156916E-04
 0.931183963E-04 0.943368381E-04 0.955712232E-04 0.968217599E-04 0.980886598E-04 0.993721369E-04 0.100672408E-03 0.101989693E-03
 0.103324215E-03 0.104676199E-03 0.106045873E-03 0.107433469E-03 0.108839222E-03 0.110263368E-03 0.111706150E-03 0.113167810E-03
 0.114648596E-03 0.116148757E-03 0.117668549E-03 0.119208226E-03 0.120768050E-03 0.122348284E-03 0.123949195E-03 0.125571054E-03
 0.127214134E-03 0.128878714E-03 0.130565075E-03 0.132273502E-03 0.134004283E-03 0.135757711E-03 0.137534083E-03 0.139333698E-03
 0.141156861E-03 0.143003880E-03 0.144875067E-03 0.146770738E-03 0.148691213E-03 0.150636818E-03 0.152607881E-03 0.154604735E-03
 0.156627717E-03 0.158677170E-03 0.160753440E-03 0.162856877E-03 0.164987838E-03 0.167146682E-03 0.169333774E-03 0.171549484E-03
 0.173794186E-03 0.176068260E-03 0.178372090E-03 0.180706065E-03 0.183070580E-03 0.185466034E-03 0.187892833E-03 0.190351386E-03
 0.192842108E-03 0.195365422E-03 0.197921752E-03 0.200511532E-03 0.203135199E-03 0.205793196E-03 0.208485973E-03 0.211213984E-03
 0.213977691E-03 0.216777561E-03 0.219614066E-03 0.222487687E-03 0.225398909E-03 0.228348224E-03 0.231336130E-03 0.234363133E-03
 0.237429743E-03 0.240536480E-03 0.243683868E-03 0.246872439E-03 0.250102732E-03 0.253375293E-03 0.256690675E-03 0.260049439E-03
 0.263452151E-03 0.266899388E-03 0.270391731E-03 0.273929771E-03 0.277514105E-03 0.281145341E-03 0.284824090E-03 0.288550975E-03
 0.292326627E-03 0.296151682E-03 0.300026787E-03 0.303952598E-03 0.307929777E-03 0.311958998E-03 0.316040940E-03 0.320176294E-03
 0.324365758E-03 0.328610041E-03 0.332909860E-03 0.337265941E-03 0.341679021E-03 0.346149846E-03 0.350679171E-03 0.355267761E-03
 0.359916393E-03 0.364625851E-03 0.369396932E-03 0.374230442E-03 0.379127197E-03 0.384088026E-03 0.389113767E-03 0.394205269E-03
 0.399363393E-03 0.404589010E-03 0.409883004E-03 0.415246268E-03 0.420679711E-03 0.426184249E-03 0.431760813E-03 0.437410346E-03
 0.443133803E-03 0.448932150E-03 0.454806367E-03 0.460757448E-03 0.466786398E-03 0.472894236E-03 0.479081995E-03 0.485350719E-03
 0.491701469E-03 0.498135317E-03 0.504653352E-03 0.511256674E-03 0.517946400E-03 0.524723660E-03 0.531589599E-03 0.538545379E-03
 0.545592174E-03 0.552731175E-03 0.559963589E-03 0.567290638E-03 0.574713561E-03 0.582233612E-03 0.589852061E-03 0.597570197E-03
 0.605389324E-03 0.613310763E-03 0.621335853E-03 0.629465950E-03 0.637702429E-03 0.646046680E-03 0.654500115E-03 0.663064163E-03
 0.671740269E-03 0.680529902E-03 0.689434545E-03 0.698455705E-03 0.707594905E-03 0.716853690E-03 0.726233626E-03 0.735736296E-03
 0.745363308E-03 0.755116288E-03 0.764996885E-03 0.775006768E-03 0.785147628E-03 0.795421181E-03 0.805829162E-03 0.816373329E-03
 0.827055466E-03 0.837877377E-03 0.848840891E-03 0.859947862E-03 0.871200166E-03 0.882599704E-03 0.894148404E-03 0.905848218E-03
 0.917701121E-03 0.929709119E-03 0.941874239E-03 0.954198539E-03 0.966684100E-03 0.979333033E-03 0.992147476E-03 0.100512959E-02
 0.101828158E-02 0.103160566E-02 0.104510408E-02 0.105877913E-02 0.107263312E-02 0.108666838E-02 0.110088729E-02 0.111529226E-02
 0.112988571E-02 0.114467011E-02 0.115964797E-02 0.117482181E-02 0.119019419E-02 0.120576773E-02 0.122154504E-02 0.123752879E-02
 0.125372169E-02 0.127012648E-02 0.128674591E-02 0.130358281E-02 0.132064002E-02 0.133792042E-02 0.135542693E-02 0.137316251E-02
 0.139113016E-02 0.140933292E-02 0.142777385E-02 0.144645608E-02 0.146538277E-02 0.148455711E-02 0.150398234E-02 0.152366175E-02
 0.154359866E-02 0.156379644E-02 0.158425851E-02 0.160498833E-02 0.162598938E-02 0.164726524E-02 0.166881949E-02 0.169065577E-02
 0.171277778E-02 0.173518925E-02 0.175789397E-02 0.178089578E-02 0.180419856E-02 0.182780626E-02 0.185172286E-02 0.187595241E-02
 0.190049900E-02 0.192536678E-02 0.195055995E-02 0.197608276E-02 0.200193954E-02 0.202813466E-02 0.205467253E-02 0.208155765E-02
 0.210879455E-02 0.213638785E-02 0.216434220E-02 0.219266233E-02 0.222135303E-02 0.225041914E-02 0.227986557E-02 0.230969731E-02
 0.233991940E-02 0.237053693E-02 0.240155509E-02 0.243297912E-02 0.246481433E-02 0.249706610E-02 0.252973988E-02 0.256284119E-02
 0.259637563E-02 0.263034886E-02 0.266476662E-02 0.269963474E-02 0.273495910E-02 0.277074568E-02 0.280700052E-02 0.284372975E-02
 0.288093958E-02 0.291863629E-02 0.295682626E-02 0.299551594E-02 0.303471187E-02 0.307442067E-02 0.311464905E-02 0.315540382E-02
 0.319669186E-02 0.323852015E-02 0.328089576E-02 0.332382585E-02 0.336731767E-02 0.341137857E-02 0.345601601E-02 0.350123752E-02
 0.354705075E-02 0.359346344E-02 0.364048343E-02 0.368811867E-02 0.373637721E-02 0.378526721E-02 0.383479693E-02 0.388497474E-02
 0.393580912E-02 0.398730866E-02 0.403948207E-02 0.409233815E-02 0.414588586E-02 0.420013422E-02 0.425509242E-02 0.431076974E-02
 0.436717559E-02 0.442431951E-02 0.448221114E-02 0.454086028E-02 0.460027683E-02 0.466047085E-02 0.472145249E-02 0.478323207E-02
 0.484582002E-02 0.490922694E-02 0.497346352E-02 0.503854063E-02 0.510446927E-02 0.517126057E-02 0.523892583E-02 0.530747648E-02
 0.537692410E-02 0.544728044E-02 0.551855738E-02 0.559076698E-02 0.566392142E-02 0.573803308E-02 0.581311448E-02 0.588917831E-02
 0.596623743E-02 0.604430486E-02 0.612339378E-02 0.620351758E-02 0.628468978E-02 0.636692412E-02 0.645023447E-02 0.653463494E-02
 0.662013977E-02 0.670676342E-02 0.679452053E-02 0.688342593E-02 0.697349464E-02 0.706474190E-02 0.715718311E-02 0.725083390E-02
 0.734571010E-02 0.744182774E-02 0.753920307E-02 0.763785254E-02 0.773779283E-02 0.783904082E-02 0.794161363E-02 0.804552859E-02
 0.815080327E-02 0.825745545E-02 0.836550316E-02 0.847496465E-02 0.858585844E-02 0.869820326E-02 0.881201810E-02 0.892732219E-02
 0.904413501E-02 0.916247632E-02 0.928236611E-02 0.940382464E-02 0.952687243E-02 0.965153030E-02 0.977781929E-02 0.990576076E-02
 0.100353763E-01 0.101666879E-01 0.102997177E-01 0.104344881E-01 0.105710220E-01 0.107093424E-01 0.108494727E-01 0.109914366E-01
 0.111352581E-01 0.112809615E-01 0.114285714E-01 0.115781127E-01 0.117296108E-01 0.118830912E-01 0.120385799E-01 0.121961031E-01
 0.123556875E-01 0.125173600E-01 0.126811480E-01 0.128470792E-01 0.130151815E-01 0.131854834E-01 0.133580137E-01 0.135328015E-01
 0.137098765E-01 0.138892684E-01 0.140710076E-01 0.142551249E-01 0.144416513E-01 0.146306184E-01 0.148220581E-01 0.150160028E-01
 0.152124852E-01 0.154115385E-01 0.156131964E-01 0.158174931E-01 0.160244628E-01 0.162341408E-01 0.164465624E-01 0.166617635E-01
 0.168797805E-01 0.171006501E-01 0.173244099E-01 0.175510975E-01 0.177807513E-01 0.180134100E-01 0.182491131E-01 0.184879003E-01
 0.187298121E-01 0.189748892E-01 0.192231731E-01 0.194747058E-01 0.197295297E-01 0.199876880E-01 0.202492242E-01 0.205141826E-01
 0.207826080E-01 0.210545457E-01 0.213300416E-01 0.216091424E-01 0.218918951E-01 0.221783477E-01 0.224685484E-01 0.227625464E-01
 0.230603913E-01 0.233621334E-01 0.236678239E-01 0.239775142E-01 0.242912568E-01 0.246091047E-01 0.249311115E-01 0.252573318E-01
 0.255878207E-01 0.259226339E-01 0.262618281E-01 0.266054607E-01 0.269535896E-01 0.273062737E-01 0.276635727E-01 0.280255469E-01
 0.283922574E-01 0.287637664E-01 0.291401364E-01 0.295214313E-01 0.299077153E-01 0.302990538E-01 0.306955129E-01 0.310971596E-01
 0.315040618E-01 0.319162882E-01 0.323339086E-01 0.327569935E-01 0.331856145E-01 0.336198438E-01 0.340597550E-01 0.345054224E-01
 0.349569213E-01 0.354143280E-01 0.358777197E-01 0.363471749E-01 0.368227729E-01 0.373045940E-01 0.377927197E-01 0.382872324E-01
 0.387882158E-01 0.392957544E-01 0.398099341E-01 0.403308419E-01 0.408585656E-01 0.413931945E-01 0.419348189E-01 0.424835305E-01
 0.430394218E-01 0.436025870E-01 0.441731210E-01 0.447511205E-01 0.453366829E-01 0.459299074E-01 0.465308942E-01 0.471397447E-01
 0.477565621E-01 0.483814503E-01 0.490145152E-01 0.496558636E-01 0.503056040E-01 0.509638462E-01 0.516307013E-01 0.523062822E-01
 0.529907030E-01 0.536840793E-01 0.543865284E-01 0.550981689E-01 0.558191211E-01 0.565495069E-01 0.572894497E-01 0.580390745E-01
 0.587985081E-01 0.595678788E-01 0.603473166E-01 0.611369532E-01 0.619369222E-01 0.627473586E-01 0.635683994E-01 0.644001835E-01
 0.652428514E-01 0.660965454E-01 0.669614100E-01 0.678375911E-01 0.687252370E-01 0.696244976E-01 0.705355249E-01 0.714584729E-01
 0.723934976E-01 0.733407569E-01 0.743004110E-01 0.752726220E-01 0.762575543E-01 0.772553742E-01 0.782662506E-01 0.792903541E-01
 0.803278578E-01 0.813789372E-01 0.824437698E-01 0.835225356E-01 0.846154169E-01 0.857225984E-01 0.868442672E-01 0.879806129E-01
 0.891318276E-01 0.902981057E-01 0.914796445E-01 0.926766435E-01 0.938893051E-01 0.951178342E-01 0.963624384E-01 0.976233281E-01
 0.989007164E-01 0.100194819E+00 0.101505855E+00 0.102834046E+00 0.104179616E+00 0.105542792E+00 0.106923806E+00 0.108322889E+00
 0.109740280E+00 0.111176217E+00 0.112630943E+00 0.114104704E+00 0.115597749E+00 0.117110330E+00 0.118642703E+00 0.120195127E+00
 0.121767865E+00 0.123361181E+00 0.124975346E+00 0.126610631E+00 0.128267315E+00 0.129945676E+00 0.131645997E+00 0.133368568E+00
 0.135113678E+00 0.136881622E+00 0.138672700E+00 0.140487214E+00 0.142325471E+00 0.144187781E+00 0.146074459E+00 0.147985824E+00
 0.149922198E+00 0.151883911E+00 0.153871291E+00 0.155884677E+00 0.157924407E+00 0.159990827E+00 0.162084286E+00 0.164205137E+00
 0.166353740E+00 0.168530456E+00 0.170735655E+00 0.172969708E+00 0.175232994E+00 0.177525894E+00 0.179848797E+00 0.182202095E+00
 0.184586185E+00 0.187001471E+00 0.189448360E+00 0.191927267E+00 0.194438610E+00 0.196982813E+00 0.199560307E+00 0.202171527E+00
 0.204816915E+00 0.207496917E+00 0.210211987E+00 0.212962583E+00 0.215749170E+00 0.218572219E+00 0.221432208E+00 0.224329619E+00
 0.227264942E+00 0.230238674E+00 0.233251316E+00 0.236303379E+00 0.239395377E+00 0.242527834E+00 0.245701278E+00 0.248916247E+00
 0.252173283E+00 0.255472937E+00 0.258815767E+00 0.262202337E+00 0.265633219E+00 0.269108995E+00 0.272630250E+00 0.276197581E+00
 0.279811590E+00 0.283472887E+00 0.287182092E+00 0.290939832E+00 0.294746741E+00 0.298603463E+00 0.302510650E+00 0.306468962E+00
 0.310479067E+00 0.314541645E+00 0.318657380E+00 0.322826970E+00 0.327051118E+00 0.331330538E+00 0.335665955E+00 0.340058099E+00
 0.344507714E+00 0.349015552E+00 0.353582374E+00 0.358208953E+00 0.362896069E+00 0.367644516E+00 0.372455096E+00 0.377328621E+00
 0.382265916E+00 0.387267815E+00 0.392335163E+00 0.397468817E+00 0.402669644E+00 0.407938522E+00 0.413276344E+00 0.418684010E+00
 0.424162435E+00 0.429712544E+00 0.435335276E+00 0.441031580E+00 0.446802420E+00 0.452648770E+00 0.458571619E+00 0.464571968E+00
 0.470650831E+00 0.476809234E+00 0.483048220E+00 0.489368842E+00 0.495772168E+00 0.502259281E+00 0.508831277E+00 0.515489267E+00
 0.522234376E+00 0.529067743E+00 0.535990524E+00 0.543003889E+00 0.550109023E+00 0.557307127E+00 0.564599417E+00 0.571987125E+00
 0.579471501E+00 0.587053809E+00 0.594735330E+00 0.602517363E+00 0.610401222E+00 0.618388242E+00 0.626479770E+00 0.634677174E+00
 0.642981841E+00 0.651395173E+00 0.659918593E+00 0.668553540E+00 0.677301474E+00 0.686163874E+00 0.695142237E+00 0.704238081E+00
 0.713452943E+00 0.722788380E+00 0.732245970E+00 0.741827312E+00 0.751534024E+00 0.761367747E+00 0.771330143E+00 0.781422895E+00
 0.791647710E+00 0.802006316E+00 0.812500462E+00 0.823131923E+00 0.833902495E+00 0.844813998E+00 0.855868277E+00 0.867067200E+00
 0.878412660E+00 0.889906573E+00 0.901550882E+00 0.913347556E+00 0.925298588E+00 0.937405997E+00 0.949671830E+00 0.962098160E+00
 0.974687087E+00 0.987440738E+00 0.100036127E+01 0.101345086E+01 0.102671173E+01 0.104014612E+01 0.105375629E+01 0.106754456E+01
 0.108151323E+01 0.109566469E+01 0.111000132E+01 0.112452554E+01 0.113923981E+01 0.115414661E+01 0.116924846E+01 0.118454792E+01
 0.120004758E+01 0.121575004E+01 0.123165797E+01 0.124777405E+01 0.126410101E+01 0.128064160E+01 0.129739863E+01 0.131437492E+01
 0.133157334E+01 0.134899680E+01 0.136664824E+01 0.138453065E+01 0.140264705E+01 0.142100050E+01 0.143959411E+01 0.145843101E+01
 0.147751438E+01 0.149684746E+01 0.151643351E+01 0.153627584E+01 0.155637781E+01 0.157674281E+01 0.159737428E+01 0.161827571E+01
 0.163945063E+01 0.166090262E+01 0.168263531E+01 0.170465237E+01 0.172695752E+01 0.174955453E+01 0.177244722E+01 0.179563946E+01
 0.181913516E+01 0.184293831E+01 0.186705291E+01 0.189148305E+01 0.191623285E+01 0.194130651E+01 0.196670825E+01 0.199244236E+01
 0.201851321E+01 0.204492518E+01 0.207168276E+01 0.209879045E+01 0.212625285E+01 0.215407458E+01 0.218226036E+01 0.221081495E+01
 0.223974317E+01 0.226904991E+01 0.229874013E+01 0.232881884E+01 0.235929113E+01 0.239016214E+01 0.242143709E+01 0.245312128E+01
 0.248522004E+01 0.251773882E+01 0.255068310E+01 0.258405845E+01 0.261787051E+01 0.265212500E+01 0.268682770E+01 0.272198448E+01
 0.275760129E+01 0.279368414E+01 0.283023912E+01 0.286727243E+01 0.290479031E+01 0.294279910E+01 0.298130524E+01 0.302031522E+01
 0.305983565E+01 0.309987319E+01 0.314043462E+01 0.318152679E+01 0.322315664E+01 0.326533122E+01 0.330805765E+01 0.335134314E+01
 0.339519502E+01 0.343962070E+01 0.348462768E+01 0.353022357E+01 0.357641608E+01 0.362321301E+01 0.367062227E+01 0.371865188E+01
 0.376730994E+01 0.381660469E+01 0.386654446E+01 0.391713768E+01 0.396839291E+01 0.402031880E+01 0.407292414E+01 0.412621781E+01
 0.418020883E+01 0.423490630E+01 0.429031949E+01 0.434645775E+01 0.440333058E+01 0.446094757E+01 0.451931848E+01 0.457845316E+01
 0.463836162E+01 0.469905396E+01 0.476054046E+01 0.482283150E+01 0.488593761E+01 0.494986946E+01 0.501463784E+01 0.508025371E+01
 0.514672816E+01 0.521407241E+01 0.528229786E+01 0.535141603E+01 0.542143860E+01 0.549237740E+01 0.556424443E+01 0.563705183E+01
 0.571081191E+01 0.578553712E+01 0.586124011E+01 0.593793366E+01 0.601563073E+01 0.609434446E+01 0.617408815E+01 0.625487528E+01
 0.633671949E+01 0.641963462E+01 0.650363469E+01 0.658873389E+01 0.667494660E+01 0.676228739E+01 0.685077102E+01 0.694041245E+01
 0.703122683E+01 0.712322950E+01 0.721643601E+01 0.731086212E+01 0.740652378E+01 0.750343716E+01 0.760161864E+01 0.770108481E+01
 0.780185249E+01 0.790393869E+01 0.800736068E+01 0.811213593E+01 0.821828216E+01 0.832581729E+01 0.843475950E+01 0.854512721E+01
 0.865693907E+01 0.877021397E+01 0.888497105E+01 0.900122972E+01 0.911900962E+01 0.923833065E+01 0.935921298E+01 0.948167704E+01
 0.960574353E+01 0.973143341E+01 0.985876792E+01 0.998776859E+01 0.101184572E+02 0.102508559E+02 0.103849870E+02 0.105208732E+02
 0.106585374E+02 0.107980029E+02 0.109392934E+02 0.110824326E+02 0.112274447E+02 0.113743544E+02 0.115231863E+02 0.116739656E+02
 0.118267179E+02 0.119814690E+02 0.121382449E+02 0.122970722E+02 0.124579778E+02 0.126209888E+02 0.127861327E+02 0.129534376E+02
 0.131229316E+02 0.132946434E+02 0.134686021E+02 0.136448369E+02 0.138233778E+02 0.140042549E+02 0.141874987E+02 0.143731402E+02
 0.145612109E+02 0.147517424E+02 0.149447670E+02 0.151403173E+02 0.153384263E+02 0.155391276E+02 0.157424550E+02 0.159484429E+02
 0.161571262E+02 0.163685401E+02 0.165827202E+02 0.167997029E+02 0.170195248E+02 0.172422230E+02 0.174678352E+02 0.176963996E+02
 0.179279546E+02 0.181625395E+02 0.184001939E+02 0.186409580E+02 0.188848725E+02 0.191319785E+02 0.193823179E+02 0.196359330E+02
 0.198928666E+02 0.201531621E+02 0.204168635E+02 0.206840155E+02 0.209546631E+02 0.212288521E+02 0.215066288E+02 0.217880402E+02
 0.220731338E+02 0.223619578E+02 0.226545611E+02 0.229509930E+02 0.232513037E+02 0.235555439E+02 0.238637651E+02 0.241760193E+02
 0.244923593E+02 0.248128386E+02 0.251375113E+02 0.254664323E+02 0.257996572E+02 0.261372423E+02 0.264792446E+02 0.268257220E+02
 0.271767330E+02 0.275323370E+02 0.278925939E+02 0.282575648E+02 0.286273113E+02 0.290018959E+02 0.293813819E+02 0.297658333E+02
 0.301553153E+02 0.305498936E+02 0.309496349E+02 0.313546068E+02 0.317648777E+02 0.321805169E+02 0.326015947E+02 0.330281822E+02
 0.334603516E+02 0.338981759E+02 0.343417290E+02 0.347910860E+02 0.352463227E+02 0.357075162E+02 0.361747443E+02 0.366480860E+02
 0.371276214E+02 0.376134314E+02 0.381055981E+02 0.386042048E+02 0.391093357E+02 0.396210762E+02 0.401395127E+02 0.406647329E+02
 0.411968256E+02 0.417358806E+02 0.422819890E+02 0.428352432E+02 0.433957367E+02 0.439635642E+02 0.445388216E+02 0.451216061E+02
 0.457120164E+02 0.463101520E+02 0.469161142E+02 0.475300054E+02 0.481519292E+02 0.487819908E+02 0.494202967E+02 0.500669547E+02
 0.507220742E+02 0.513857658E+02 0.520581417E+02 0.527393156E+02 0.534294025E+02 0.541285192E+02 0.548367837E+02 0.555543157E+02
 0.562812366E+02 0.570176691E+02 0.577637377E+02 0.585195686E+02 0.592852894E+02 0.600610295E+02 0.608469201E+02 0.616430940E+02
 0.624496857E+02 0.632668316E+02 0.640946697E+02 0.649333399E+02 0.657829840E+02 0.666437457E+02 0.675157702E+02 0.683992051E+02
 0.692941997E+02 0.702009051E+02 0.711194746E+02 0.720500635E+02 0.729928290E+02 0.739479305E+02 0.749155294E+02 0.758957891E+02
 0.768888755E+02 0.778949562E+02 0.789142014E+02 0.799467832E+02 0.809928763E+02 0.820526573E+02 0.831263055E+02 0.842140022E+02
 0.853159312E+02 0.864322788E+02 0.875632337E+02 0.887089870E+02 0.898697324E+02 0.910456659E+02 0.922369864E+02 0.934438951E+02
 0.946665961E+02 0.959052959E+02 0.971602040E+02 0.984315324E+02 0.997194959E+02 0.101024312E+03 0.102346202E+03 0.103685389E+03
 0.105042098E+03 0.106416560E+03 0.107809007E+03 0.109219673E+03 0.110648798E+03 0.112096623E+03 0.113563392E+03 0.115049354E+03
 0.116554760E+03 0.118079863E+03
   </PP_R>
   <PP_RAB type="real"  size="1138" columns="8">
 0.584537607E-06 0.592186204E-06 0.599934882E-06 0.607784950E-06 0.615737736E-06 0.623794582E-06 0.631956852E-06 0.640225923E-06
 0.648603195E-06 0.657090081E-06 0.665688018E-06 0.674398457E-06 0.683222872E-06 0.692162752E-06 0.701219610E-06 0.710394976E-06
 0.719690400E-06 0.729107453E-06 0.738647727E-06 0.748312835E-06 0.758104409E-06 0.768024105E-06 0.778073598E-06 0.788254588E-06
 0.798568795E-06 0.809017962E-06 0.819603854E-06 0.830328262E-06 0.841192997E-06 0.852199896E-06 0.863350819E-06 0.874647650E-06
 0.886092298E-06 0.897686698E-06 0.909432810E-06 0.921332617E-06 0.933388133E-06 0.945601392E-06 0.957974461E-06 0.970509430E-06
 0.983208417E-06 0.996073569E-06 0.100910706E-05 0.102231109E-05 0.103568790E-05 0.104923974E-05 0.106296890E-05 0.107687771E-05
 0.109096851E-05 0.110524369E-05 0.111970565E-05 0.113435685E-05 0.114919976E-05 0.116423689E-05 0.117947077E-05 0.119490399E-05
 0.121053915E-05 0.122637890E-05 0.124242590E-05 0.125868288E-05 0.127515258E-05 0.129183778E-05 0.130874131E-05 0.132586601E-05
 0.134321479E-05 0.136079058E-05 0.137859634E-05 0.139663510E-05 0.141490988E-05 0.143342379E-05 0.145217995E-05 0.147118153E-05
 0.149043175E-05 0.150993385E-05 0.152969113E-05 0.154970694E-05 0.156998465E-05 0.159052769E-05 0.161133953E-05 0.163242370E-05
 0.165378374E-05 0.167542328E-05 0.169734598E-05 0.171955552E-05 0.174205568E-05 0.176485025E-05 0.178794308E-05 0.181133808E-05
 0.183503919E-05 0.185905044E-05 0.188337587E-05 0.190801959E-05 0.193298577E-05 0.195827864E-05 0.198390245E-05 0.200986155E-05
 0.203616032E-05 0.206280321E-05 0.208979472E-05 0.211713940E-05 0.214484189E-05 0.217290686E-05 0.220133906E-05 0.223014329E-05
 0.225932442E-05 0.228888738E-05 0.231883717E-05 0.234917885E-05 0.237991754E-05 0.241105845E-05 0.244260683E-05 0.247456801E-05
 0.250694741E-05 0.253975048E-05 0.257298278E-05 0.260664992E-05 0.264075759E-05 0.267531155E-05 0.271031765E-05 0.274578179E-05
 0.278170998E-05 0.281810829E-05 0.285498286E-05 0.289233993E-05 0.293018582E-05 0.296852691E-05 0.300736969E-05 0.304672073E-05
 0.308658666E-05 0.312697424E-05 0.316789028E-05 0.320934171E-05 0.325133552E-05 0.329387881E-05 0.333697878E-05 0.338064270E-05
 0.342487796E-05 0.346969204E-05 0.351509250E-05 0.356108702E-05 0.360768337E-05 0.365488943E-05 0.370271317E-05 0.375116268E-05
 0.380024615E-05 0.384997186E-05 0.390034824E-05 0.395138377E-05 0.400308711E-05 0.405546697E-05 0.410853222E-05 0.416229182E-05
 0.421675485E-05 0.427193053E-05 0.432782818E-05 0.438445723E-05 0.444182727E-05 0.449994800E-05 0.455882922E-05 0.461848089E-05
 0.467891310E-05 0.474013606E-05 0.480216011E-05 0.486499574E-05 0.492865356E-05 0.499314434E-05 0.505847897E-05 0.512466850E-05
 0.519172411E-05 0.525965713E-05 0.532847905E-05 0.539820149E-05 0.546883624E-05 0.554039523E-05 0.561289057E-05 0.568633450E-05
 0.576073943E-05 0.583611794E-05 0.591248277E-05 0.598984683E-05 0.606822318E-05 0.614762507E-05 0.622806593E-05 0.630955935E-05
 0.639211910E-05 0.647575913E-05 0.656049357E-05 0.664633676E-05 0.673330320E-05 0.682140758E-05 0.691066479E-05 0.700108992E-05
 0.709269826E-05 0.718550527E-05 0.727952666E-05 0.737477830E-05 0.747127629E-05 0.756903695E-05 0.766807680E-05 0.776841256E-05
 0.787006121E-05 0.797303992E-05 0.807736609E-05 0.818305735E-05 0.829013157E-05 0.839860684E-05 0.850850150E-05 0.861983411E-05
 0.873262350E-05 0.884688872E-05 0.896264909E-05 0.907992416E-05 0.919873376E-05 0.931909797E-05 0.944103714E-05 0.956457185E-05
 0.968972301E-05 0.981651175E-05 0.994495950E-05 0.100750880E-04 0.102069192E-04 0.103404754E-04 0.104757791E-04 0.106128533E-04
 0.107517211E-04 0.108924059E-04 0.110349316E-04 0.111793222E-04 0.113256022E-04 0.114737962E-04 0.116239293E-04 0.117760268E-04
 0.119301146E-04 0.120862185E-04 0.122443651E-04 0.124045810E-04 0.125668933E-04 0.127313294E-04 0.128979172E-04 0.130666847E-04
 0.132376606E-04 0.134108736E-04 0.135863531E-04 0.137641287E-04 0.139442305E-04 0.141266889E-04 0.143115348E-04 0.144987993E-04
 0.146885142E-04 0.148807114E-04 0.150754236E-04 0.152726835E-04 0.154725245E-04 0.156749805E-04 0.158800855E-04 0.160878743E-04
 0.162983820E-04 0.165116442E-04 0.167276969E-04 0.169465766E-04 0.171683203E-04 0.173929655E-04 0.176205501E-04 0.178511127E-04
 0.180846921E-04 0.183213279E-04 0.185610600E-04 0.188039291E-04 0.190499760E-04 0.192992424E-04 0.195517704E-04 0.198076027E-04
 0.200667826E-04 0.203293538E-04 0.205953607E-04 0.208648482E-04 0.211378620E-04 0.214144481E-04 0.216946533E-04 0.219785250E-04
 0.222661111E-04 0.225574602E-04 0.228526216E-04 0.231516451E-04 0.234545813E-04 0.237614814E-04 0.240723972E-04 0.243873813E-04
 0.247064870E-04 0.250297681E-04 0.253572793E-04 0.256890759E-04 0.260252141E-04 0.263657505E-04 0.267107429E-04 0.270602494E-04
 0.274143292E-04 0.277730421E-04 0.281364486E-04 0.285046103E-04 0.288775894E-04 0.292554488E-04 0.296382525E-04 0.300260651E-04
 0.304189522E-04 0.308169801E-04 0.312202162E-04 0.316287286E-04 0.320425863E-04 0.324618593E-04 0.328866184E-04 0.333169355E-04
 0.337528831E-04 0.341945351E-04 0.346419661E-04 0.350952516E-04 0.355544683E-04 0.360196938E-04 0.364910068E-04 0.369684867E-04
 0.374522145E-04 0.379422718E-04 0.384387413E-04 0.389417072E-04 0.394512543E-04 0.399674687E-04 0.404904377E-04 0.410202497E-04
 0.415569942E-04 0.421007620E-04 0.426516449E-04 0.432097360E-04 0.437751297E-04 0.443479214E-04 0.449282081E-04 0.455160877E-04
 0.461116597E-04 0.467150247E-04 0.473262846E-04 0.479455427E-04 0.485729038E-04 0.492084738E-04 0.498523601E-04 0.505046717E-04
 0.511655186E-04 0.518350126E-04 0.525132669E-04 0.532003960E-04 0.538965161E-04 0.546017449E-04 0.553162015E-04 0.560400067E-04
 0.567732827E-04 0.575161536E-04 0.582687448E-04 0.590311836E-04 0.598035988E-04 0.605861210E-04 0.613788823E-04 0.621820169E-04
 0.629956603E-04 0.638199502E-04 0.646550258E-04 0.655010282E-04 0.663581005E-04 0.672263874E-04 0.681060358E-04 0.689971942E-04
 0.699000133E-04 0.708146458E-04 0.717412460E-04 0.726799707E-04 0.736309785E-04 0.745944300E-04 0.755704883E-04 0.765593181E-04
 0.775610866E-04 0.785759631E-04 0.796041192E-04 0.806457285E-04 0.817009672E-04 0.827700135E-04 0.838530482E-04 0.849502542E-04
 0.860618170E-04 0.871879244E-04 0.883287669E-04 0.894845371E-04 0.906554304E-04 0.918416447E-04 0.930433804E-04 0.942608407E-04
 0.954942313E-04 0.967437606E-04 0.980096399E-04 0.992920830E-04 0.100591307E-03 0.101907531E-03 0.103240977E-03 0.104591872E-03
 0.105960442E-03 0.107346921E-03 0.108751541E-03 0.110174541E-03 0.111616160E-03 0.113076642E-03 0.114556235E-03 0.116055188E-03
 0.117573755E-03 0.119112192E-03 0.120670759E-03 0.122249720E-03 0.123849342E-03 0.125469894E-03 0.127111651E-03 0.128774890E-03
 0.130459892E-03 0.132166943E-03 0.133896330E-03 0.135648345E-03 0.137423286E-03 0.139221451E-03 0.141043146E-03 0.142888676E-03
 0.144758356E-03 0.146652500E-03 0.148571428E-03 0.150515466E-03 0.152484940E-03 0.154480186E-03 0.156501538E-03 0.158549340E-03
 0.160623937E-03 0.162725680E-03 0.164854924E-03 0.167012029E-03 0.169197359E-03 0.171411284E-03 0.173654178E-03 0.175926420E-03
 0.178228394E-03 0.180560489E-03 0.182923099E-03 0.185316623E-03 0.187741467E-03 0.190198039E-03 0.192686755E-03 0.195208036E-03
 0.197762307E-03 0.200350001E-03 0.202971554E-03 0.205627410E-03 0.208318017E-03 0.211043831E-03 0.213805311E-03 0.216602925E-03
 0.219437146E-03 0.222308452E-03 0.225217328E-03 0.228164267E-03 0.231149766E-03 0.234174331E-03 0.237238471E-03 0.240342704E-03
 0.243487557E-03 0.246673559E-03 0.249901250E-03 0.253171175E-03 0.256483886E-03 0.259839944E-03 0.263239915E-03 0.266684374E-03
 0.270173904E-03 0.273709094E-03 0.277290541E-03 0.280918851E-03 0.284594637E-03 0.288318520E-03 0.292091129E-03 0.295913103E-03
 0.299785087E-03 0.303707735E-03 0.307681710E-03 0.311707685E-03 0.315786338E-03 0.319918361E-03 0.324104450E-03 0.328345314E-03
 0.332641669E-03 0.336994241E-03 0.341403766E-03 0.345870989E-03 0.350396665E-03 0.354981558E-03 0.359626445E-03 0.364332109E-03
 0.369099347E-03 0.373928963E-03 0.378821774E-03 0.383778606E-03 0.388800298E-03 0.393887699E-03 0.399041667E-03 0.404263074E-03
 0.409552803E-03 0.414911747E-03 0.420340812E-03 0.425840916E-03 0.431412988E-03 0.437057970E-03 0.442776815E-03 0.448570491E-03
 0.454439977E-03 0.460386263E-03 0.466410357E-03 0.472513274E-03 0.478696048E-03 0.484959722E-03 0.491305356E-03 0.497734021E-03
 0.504246805E-03 0.510844807E-03 0.517529144E-03 0.524300944E-03 0.531161352E-03 0.538111528E-03 0.545152646E-03 0.552285896E-03
 0.559512484E-03 0.566833631E-03 0.574250573E-03 0.581764566E-03 0.589376878E-03 0.597088797E-03 0.604901624E-03 0.612816682E-03
 0.620835307E-03 0.628958854E-03 0.637188698E-03 0.645526227E-03 0.653972852E-03 0.662530000E-03 0.671199117E-03 0.679981669E-03
 0.688879139E-03 0.697893031E-03 0.707024869E-03 0.716276195E-03 0.725648574E-03 0.735143590E-03 0.744762846E-03 0.754507969E-03
 0.764380606E-03 0.774382425E-03 0.784515116E-03 0.794780392E-03 0.805179988E-03 0.815715662E-03 0.826389193E-03 0.837202386E-03