<UPF version="2.0.1">
  <PP_INFO>

 This pseudopotential file has been produced using the code
 ONCVPSP  (Optimized Norm-Conservinng Vanderbilt PSeudopotential)
 scalar-relativistic version 1.1.1, 08/28/2013 by D. R. Hamann
 The code is available through a link at URL www.mat-simresearch.com.
 Documentation with the package provides a full discription of the
 input data below.


 While it is not required under the terms of the GNU GPL, it is
 suggested that you cite D. R. Hamann, Phys. Rev. B 88, 085117 (2013)
 in any publication using these pseudopotentials.

    <PP_INPUTFILE>
# ATOM AND REFERENCE CONFIGURATION
# atsym  z    nc    nv    iexc   psfile
  Cl 17.00     3     2     3      upf
#
#   n    l    f        energy (Ha)
    1    0    2.00
    2    0    2.00
    2    1    6.00
    3    0    2.00
    3    1    5.00
#
# PSEUDOPOTENTIAL AND OPTIMIZATION
# lmax
    2
#
#   l,   rc,     ep,   ncon, nbas, qcut
    0    2.72   -0.76    5    8    5.00
    1    2.72   -0.32    5    8    5.00
    2    3.01    0.15    5    9    6.00
#
# LOCAL POTENTIAL
# lloc, lpopt,  rc(5),   dvloc0
    4    5      2.51       0.00
#
# VANDERBILT-KLEINMAN-BYLANDER PROJECTORs
# l, nproj, debl
    0    2    1.0000
    1    2    1.0000
    2    2    1.0000
#
# MODEL CORE CHARGE
# icmod, fcfact
    0    0.00
#
# LOG DERIVATIVE ANALYSIS
# epsh1, epsh2, depsh
   -2.00    2.00    0.02
#
# OUTPUT GRID
# rlmax, drl
    8.00    0.01
#
# TEST CONFIGURATIONS
# ncnf
    3
# nvcnf
#   n    l    f
    2
    3    0    2.00
    3    1    4.00
#
    2
    3    0    1.00
    3    1    5.00
#
    2
    3    0    1.00
    3    1    4.00
#
    </PP_INPUTFILE>
  </PP_INFO>
  <!--                               -->
  <!-- END OF HUMAN READABLE SECTION -->
  <!--                               -->
    <PP_HEADER
       generated="Generated using ONCVPSP code by D. R. Hamann"
       author="anonymous"
       date="140912"
       comment=""
       element="Cl"
       pseudo_type="NC"
       relativistic="scalar"
       is_ultrasoft="F"
       is_paw="F"
       is_coulomb="F"
       has_so="F"
       has_wfc="F"
       has_gipaw="F"
       core_correction="F"
       functional="LDA"
       z_valence="    7.00"
       total_psenergy="  -1.50098814352E+01"
       rho_cutoff="   1.16309551004E+02"
       l_max="2"
       l_local="-1"
       mesh_size="  1148"
       number_of_wfc="0"
       number_of_proj="6"/>
 <PP_MESH>
   <PP_R type="real"  size="1148" columns="8">
 0.388911119E-04 0.393999969E-04 0.399155406E-04 0.404378302E-04 0.409669538E-04 0.415030010E-04 0.420460623E-04 0.425962294E-04
 0.431535954E-04 0.437182545E-04 0.442903021E-04 0.448698348E-04 0.454569506E-04 0.460517488E-04 0.466543298E-04 0.472647955E-04
 0.478832491E-04 0.485097951E-04 0.491445393E-04 0.497875891E-04 0.504390531E-04 0.510990414E-04 0.517676656E-04 0.524450386E-04
 0.531312750E-04 0.538264907E-04 0.545308032E-04 0.552443315E-04 0.559671963E-04 0.566995196E-04 0.574414253E-04 0.581930387E-04
 0.589544869E-04 0.597258986E-04 0.605074040E-04 0.612991354E-04 0.621012264E-04 0.629138127E-04 0.637370316E-04 0.645710222E-04
 0.654159255E-04 0.662718842E-04 0.671390430E-04 0.680175485E-04 0.689075491E-04 0.698091952E-04 0.707226393E-04 0.716480356E-04
 0.725855407E-04 0.735353129E-04 0.744975127E-04 0.754723028E-04 0.764598478E-04 0.774603148E-04 0.784738727E-04 0.795006929E-04
 0.805409490E-04 0.815948166E-04 0.826624740E-04 0.837441015E-04 0.848398819E-04 0.859500005E-04 0.870746449E-04 0.882140051E-04
 0.893682736E-04 0.905376456E-04 0.917223187E-04 0.929224931E-04 0.941383716E-04 0.953701597E-04 0.966180656E-04 0.978823001E-04
 0.991630771E-04 0.100460613E-03 0.101775127E-03 0.103106841E-03 0.104455980E-03 0.105822773E-03 0.107207450E-03 0.108610245E-03
 0.110031395E-03 0.111471142E-03 0.112929727E-03 0.114407397E-03 0.115904403E-03 0.117420997E-03 0.118957435E-03 0.120513977E-03
 0.122090886E-03 0.123688429E-03 0.125306876E-03 0.126946500E-03 0.128607578E-03 0.130290391E-03 0.131995224E-03 0.133722364E-03
 0.135472103E-03 0.137244738E-03 0.139040567E-03 0.140859894E-03 0.142703027E-03 0.144570277E-03 0.146461960E-03 0.148378396E-03
 0.150319907E-03 0.152286823E-03 0.154279476E-03 0.156298203E-03 0.158343344E-03 0.160415246E-03 0.162514258E-03 0.164640735E-03
 0.166795037E-03 0.168977528E-03 0.171188577E-03 0.173428557E-03 0.175697846E-03 0.177996829E-03 0.180325894E-03 0.182685435E-03
 0.185075849E-03 0.187497542E-03 0.189950923E-03 0.192436405E-03 0.194954410E-03 0.197505363E-03 0.200089694E-03 0.202707842E-03
 0.205360247E-03 0.208047358E-03 0.210769630E-03 0.213527523E-03 0.216321502E-03 0.219152041E-03 0.222019616E-03 0.224924713E-03
 0.227867823E-03 0.230849443E-03 0.233870078E-03 0.236930237E-03 0.240030437E-03 0.243171204E-03 0.246353067E-03 0.249576564E-03
 0.252842240E-03 0.256150647E-03 0.259502345E-03 0.262897898E-03 0.266337883E-03 0.269822878E-03 0.273353475E-03 0.276930269E-03
 0.280553865E-03 0.284224875E-03 0.287943920E-03 0.291711628E-03 0.295528636E-03 0.299395589E-03 0.303313140E-03 0.307281952E-03
 0.311302696E-03 0.315376051E-03 0.319502704E-03 0.323683355E-03 0.327918709E-03 0.332209481E-03 0.336556398E-03 0.340960194E-03
 0.345421613E-03 0.349941409E-03 0.354520346E-03 0.359159198E-03 0.363858748E-03 0.368619792E-03 0.373443133E-03 0.378329587E-03
 0.383279979E-03 0.388295147E-03 0.393375937E-03 0.398523209E-03 0.403737833E-03 0.409020689E-03 0.414372670E-03 0.419794681E-03
 0.425287639E-03 0.430852471E-03 0.436490119E-03 0.442201534E-03 0.447987683E-03 0.453849542E-03 0.459788103E-03 0.465804369E-03
 0.471899358E-03 0.478074098E-03 0.484329635E-03 0.490667024E-03 0.497087336E-03 0.503591658E-03 0.510181088E-03 0.516856740E-03
 0.523619742E-03 0.530471237E-03 0.537412383E-03 0.544444353E-03 0.551568335E-03 0.558785533E-03 0.566097168E-03 0.573504474E-03
 0.581008704E-03 0.588611126E-03 0.596313024E-03 0.604115701E-03 0.612020475E-03 0.620028682E-03 0.628141675E-03 0.636360825E-03
 0.644687522E-03 0.653123173E-03 0.661669203E-03 0.670327057E-03 0.679098198E-03 0.687984107E-03 0.696986288E-03 0.706106261E-03
 0.715345568E-03 0.724705770E-03 0.734188449E-03 0.743795207E-03 0.753527669E-03 0.763387479E-03 0.773376302E-03 0.783495829E-03
 0.793747768E-03 0.804133852E-03 0.814655837E-03 0.825315500E-03 0.836114644E-03 0.847055093E-03 0.858138697E-03 0.869367328E-03
 0.880742884E-03 0.892267288E-03 0.903942487E-03 0.915770455E-03 0.927753190E-03 0.939892717E-03 0.952191089E-03 0.964650383E-03
 0.977272705E-03 0.990060189E-03 0.100301499E-02 0.101613931E-02 0.102943536E-02 0.104290539E-02 0.105655167E-02 0.107037650E-02
 0.108438224E-02 0.109857124E-02 0.111294589E-02 0.112750864E-02 0.114226195E-02 0.115720829E-02 0.117235021E-02 0.118769026E-02
 0.120323102E-02 0.121897514E-02 0.123492527E-02 0.125108410E-02 0.126745437E-02 0.128403885E-02 0.130084032E-02 0.131786165E-02
 0.133510569E-02 0.135257537E-02 0.137027364E-02 0.138820349E-02 0.140636795E-02 0.142477009E-02 0.144341302E-02 0.146229988E-02
 0.148143388E-02 0.150081825E-02 0.152045626E-02 0.154035123E-02 0.156050652E-02 0.158092554E-02 0.160161174E-02 0.162256862E-02
 0.164379971E-02 0.166530861E-02 0.168709895E-02 0.170917442E-02 0.173153874E-02 0.175419570E-02 0.177714911E-02 0.180040287E-02
 0.182396091E-02 0.184782719E-02 0.187200577E-02 0.189650071E-02 0.192131617E-02 0.194645634E-02 0.197192547E-02 0.199772785E-02
 0.202386785E-02 0.205034989E-02 0.207717845E-02 0.210435806E-02 0.213189330E-02 0.215978884E-02 0.218804939E-02 0.221667973E-02
 0.224568469E-02 0.227506918E-02 0.230483815E-02 0.233499666E-02 0.236554978E-02 0.239650268E-02 0.242786060E-02 0.245962884E-02
 0.249181275E-02 0.252441779E-02 0.255744946E-02 0.259091335E-02 0.262481511E-02 0.265916047E-02 0.269395523E-02 0.272920528E-02
 0.276491656E-02 0.280109513E-02 0.283774709E-02 0.287487863E-02 0.291249604E-02 0.295060566E-02 0.298921395E-02 0.302832742E-02
 0.306795268E-02 0.310809643E-02 0.314876546E-02 0.318996664E-02 0.323170693E-02 0.327399339E-02 0.331683316E-02 0.336023348E-02
 0.340420169E-02 0.344874521E-02 0.349387159E-02 0.353958843E-02 0.358590348E-02 0.363282455E-02 0.368035958E-02 0.372851660E-02
 0.377730374E-02 0.382672926E-02 0.387680150E-02 0.392752894E-02 0.397892013E-02 0.403098377E-02 0.408372866E-02 0.413716371E-02
 0.419129795E-02 0.424614053E-02 0.430170071E-02 0.435798790E-02 0.441501159E-02 0.447278143E-02 0.453130718E-02 0.459059874E-02
 0.465066611E-02 0.471151946E-02 0.477316907E-02 0.483562535E-02 0.489889887E-02 0.496300031E-02 0.502794051E-02 0.509373045E-02
 0.516038123E-02 0.522790414E-02 0.529631057E-02 0.536561209E-02 0.543582041E-02 0.550694740E-02 0.557900508E-02 0.565200562E-02
 0.572596136E-02 0.580088481E-02 0.587678862E-02 0.595368562E-02 0.603158880E-02 0.611051134E-02 0.619046657E-02 0.627146801E-02
 0.635352933E-02 0.643666442E-02 0.652088732E-02 0.660621227E-02 0.669265368E-02 0.678022616E-02 0.686894452E-02 0.695882375E-02
 0.704987904E-02 0.714212577E-02 0.723557954E-02 0.733025614E-02 0.742617157E-02 0.752334204E-02 0.762178397E-02 0.772151400E-02
 0.782254899E-02 0.792490600E-02 0.802860235E-02 0.813365554E-02 0.824008335E-02 0.834790375E-02 0.845713496E-02 0.856779545E-02
 0.867990392E-02 0.879347931E-02 0.890854082E-02 0.902510789E-02 0.914320023E-02 0.926283779E-02 0.938404080E-02 0.950682973E-02
 0.963122533E-02 0.975724864E-02 0.988492094E-02 0.100142638E-01 0.101452991E-01 0.102780490E-01 0.104125359E-01 0.105487826E-01
 0.106868120E-01 0.108266475E-01 0.109683128E-01 0.111118317E-01 0.112572285E-01 0.114045279E-01 0.115537546E-01 0.117049340E-01
 0.118580915E-01 0.120132530E-01 0.121704448E-01 0.123296935E-01 0.124910259E-01 0.126544693E-01 0.128200514E-01 0.129878000E-01
 0.131577437E-01 0.133299110E-01 0.135043311E-01 0.136810335E-01 0.138600480E-01 0.140414049E-01 0.142251348E-01 0.144112688E-01
 0.145998384E-01 0.147908753E-01 0.149844120E-01 0.151804810E-01 0.153791156E-01 0.155803493E-01 0.157842161E-01 0.159907505E-01
 0.161999873E-01 0.164119620E-01 0.166267103E-01 0.168442686E-01 0.170646737E-01 0.172879627E-01 0.175141734E-01 0.177433440E-01
 0.179755133E-01 0.182107205E-01 0.184490054E-01 0.186904081E-01 0.189349697E-01 0.191827312E-01 0.194337347E-01 0.196880226E-01
 0.199456377E-01 0.202066237E-01 0.204710247E-01 0.207388854E-01 0.210102509E-01 0.212851673E-01 0.215636809E-01 0.218458388E-01
 0.221316887E-01 0.224212789E-01 0.227146584E-01 0.230118767E-01 0.233129840E-01 0.236180313E-01 0.239270701E-01 0.242401527E-01
 0.245573318E-01 0.248786613E-01 0.252041953E-01 0.255339888E-01 0.258680977E-01 0.262065783E-01 0.265494879E-01 0.268968844E-01
 0.272488266E-01 0.276053739E-01 0.279665865E-01 0.283325256E-01 0.287032529E-01 0.290788312E-01 0.294593238E-01 0.298447952E-01
 0.302353104E-01 0.306309354E-01 0.310317371E-01 0.314377833E-01 0.318491425E-01 0.322658843E-01 0.326880791E-01 0.331157983E-01
 0.335491141E-01 0.339880999E-01 0.344328296E-01 0.348833786E-01 0.353398230E-01 0.358022399E-01 0.362707075E-01 0.367453049E-01
 0.372261123E-01 0.377132111E-01 0.382066834E-01 0.387066128E-01 0.392130837E-01 0.397261817E-01 0.402459935E-01 0.407726070E-01
 0.413061112E-01 0.418465961E-01 0.423941533E-01 0.429488752E-01 0.435108555E-01 0.440801893E-01 0.446569727E-01 0.452413033E-01
 0.458332797E-01 0.464330021E-01 0.470405718E-01 0.476560914E-01 0.482796651E-01 0.489113981E-01 0.495513972E-01 0.501997707E-01
 0.508566280E-01 0.515220803E-01 0.521962399E-01 0.528792207E-01 0.535711383E-01 0.542721096E-01 0.549822529E-01 0.557016884E-01
 0.564305376E-01 0.571689237E-01 0.579169715E-01 0.586748074E-01 0.594425595E-01 0.602203575E-01 0.610083329E-01 0.618066188E-01
 0.626153502E-01 0.634346638E-01 0.642646979E-01 0.651055930E-01 0.659574910E-01 0.668205360E-01 0.676948739E-01 0.685806523E-01
 0.694780211E-01 0.703871318E-01 0.713081380E-01 0.722411956E-01 0.731864620E-01 0.741440972E-01 0.751142629E-01 0.760971230E-01
 0.770928438E-01 0.781015934E-01 0.791235424E-01 0.801588635E-01 0.812077316E-01 0.822703240E-01 0.833468202E-01 0.844374023E-01
 0.855422545E-01 0.866615636E-01 0.877955187E-01 0.889443114E-01 0.901081359E-01 0.912871889E-01 0.924816697E-01 0.936917800E-01
 0.949177245E-01 0.961597104E-01 0.974179474E-01 0.986926484E-01 0.999840286E-01 0.101292306E+00 0.102617703E+00 0.103960442E+00
 0.105320750E+00 0.106698858E+00 0.108094999E+00 0.109509408E+00 0.110942324E+00 0.112393989E+00 0.113864650E+00 0.115354553E+00
 0.116863952E+00 0.118393102E+00 0.119942260E+00 0.121511688E+00 0.123101653E+00 0.124712422E+00 0.126344267E+00 0.127997465E+00
 0.129672295E+00 0.131369040E+00 0.133087986E+00 0.134829425E+00 0.136593650E+00 0.138380960E+00 0.140191656E+00 0.142026045E+00
 0.143884437E+00 0.145767146E+00 0.147674490E+00 0.149606791E+00 0.151564376E+00 0.153547576E+00 0.155556725E+00 0.157592165E+00
 0.159654237E+00 0.161743292E+00 0.163859681E+00 0.166003763E+00 0.168175901E+00 0.170376460E+00 0.172605813E+00 0.174864337E+00
 0.177152414E+00 0.179470430E+00 0.181818777E+00 0.184197851E+00 0.186608056E+00 0.189049797E+00 0.191523489E+00 0.194029548E+00
 0.196568399E+00 0.199140471E+00 0.201746197E+00 0.204386020E+00 0.207060384E+00 0.209769741E+00 0.212514551E+00 0.215295275E+00
 0.218112385E+00 0.220966357E+00 0.223857672E+00 0.226786820E+00 0.229754296E+00 0.232760600E+00 0.235806242E+00 0.238891735E+00
 0.242017602E+00 0.245184370E+00 0.248392575E+00 0.251642759E+00 0.254935471E+00 0.258271268E+00 0.261650713E+00 0.265074378E+00
 0.268542841E+00 0.272056689E+00 0.275616514E+00 0.279222920E+00 0.282876515E+00 0.286577916E+00 0.290327751E+00 0.294126651E+00
 0.297975259E+00 0.301874226E+00 0.305824210E+00 0.309825879E+00 0.313879910E+00 0.317986987E+00 0.322147804E+00 0.326363065E+00
 0.330633483E+00 0.334959778E+00 0.339342682E+00 0.343782936E+00 0.348281290E+00 0.352838505E+00 0.357455350E+00 0.362132606E+00
 0.366871063E+00 0.371671522E+00 0.376534795E+00 0.381461702E+00 0.386453078E+00 0.391509766E+00 0.396632619E+00 0.401822504E+00
 0.407080298E+00 0.412406890E+00 0.417803179E+00 0.423270079E+00 0.428808511E+00 0.434419414E+00 0.440103734E+00 0.445862433E+00
 0.451696484E+00 0.457606873E+00 0.463594598E+00 0.469660672E+00 0.475806119E+00 0.482031979E+00 0.488339304E+00 0.494729159E+00
 0.501202624E+00 0.507760794E+00 0.514404777E+00 0.521135695E+00 0.527954686E+00 0.534862904E+00 0.541861514E+00 0.548951700E+00
 0.556134660E+00 0.563411608E+00 0.570783774E+00 0.578252404E+00 0.585818760E+00 0.593484121E+00 0.601249782E+00 0.609117056E+00
 0.617087272E+00 0.625161777E+00 0.633341936E+00 0.641629131E+00 0.650024763E+00 0.658530251E+00 0.667147032E+00 0.675876562E+00
 0.684720317E+00 0.693679792E+00 0.702756500E+00 0.711951975E+00 0.721267773E+00 0.730705466E+00 0.740266650E+00 0.749952941E+00
 0.759765976E+00 0.769707413E+00 0.779778932E+00 0.789982236E+00 0.800319049E+00 0.810791117E+00 0.821400211E+00 0.832148124E+00
 0.843036672E+00 0.854067695E+00 0.865243058E+00 0.876564648E+00 0.888034380E+00 0.899654193E+00 0.911426048E+00 0.923351937E+00
 0.935433875E+00 0.947673903E+00 0.960074090E+00 0.972636533E+00 0.985363353E+00 0.998256701E+00 0.101131876E+01 0.102455173E+01
 0.103795785E+01 0.105153939E+01 0.106529865E+01 0.107923794E+01 0.109335962E+01 0.110766609E+01 0.112215975E+01 0.113684307E+01
 0.115171851E+01 0.116678859E+01 0.118205586E+01 0.119752291E+01 0.121319234E+01 0.122906680E+01 0.124514897E+01 0.126144158E+01
 0.127794738E+01 0.129466915E+01 0.131160972E+01 0.132877196E+01 0.134615877E+01 0.136377308E+01 0.138161787E+01 0.139969615E+01
 0.141801099E+01 0.143656548E+01 0.145536275E+01 0.147440598E+01 0.149369838E+01 0.151324323E+01 0.153304381E+01 0.155310349E+01
 0.157342564E+01 0.159401371E+01 0.161487117E+01 0.163600154E+01 0.165740840E+01 0.167909537E+01 0.170106611E+01 0.172332434E+01
 0.174587381E+01 0.176871834E+01 0.179186178E+01 0.181530805E+01 0.183906112E+01 0.186312499E+01 0.188750373E+01 0.191220147E+01
 0.193722237E+01 0.196257067E+01 0.198825065E+01 0.201426664E+01 0.204062305E+01 0.206732434E+01 0.209437500E+01 0.212177962E+01
 0.214954283E+01 0.217766931E+01 0.220616382E+01 0.223503118E+01 0.226427627E+01 0.229390402E+01 0.232391945E+01 0.235432763E+01
 0.238513370E+01 0.241634285E+01 0.244796038E+01 0.247999162E+01 0.251244198E+01 0.254531695E+01 0.257862208E+01 0.261236301E+01
 0.264654543E+01 0.268117513E+01 0.271625795E+01 0.275179983E+01 0.278780676E+01 0.282428484E+01 0.286124024E+01 0.289867919E+01
 0.293660802E+01 0.297503314E+01 0.301396106E+01 0.305339834E+01 0.309335165E+01 0.313382775E+01 0.317483347E+01 0.321637574E+01
 0.325846159E+01 0.330109813E+01 0.334429256E+01 0.338805219E+01 0.343238440E+01 0.347729669E+01 0.352279666E+01 0.356889199E+01
 0.361559047E+01 0.366289999E+01 0.371082855E+01 0.375938425E+01 0.380857529E+01 0.385840999E+01 0.390889678E+01 0.396004417E+01
 0.401186083E+01 0.406435549E+01 0.411753705E+01 0.417141447E+01 0.422599688E+01 0.428129348E+01 0.433731364E+01 0.439406682E+01
 0.445156260E+01 0.450981070E+01 0.456882098E+01 0.462860339E+01 0.468916806E+01 0.475052520E+01 0.481268519E+01 0.487565854E+01
 0.493945588E+01 0.500408801E+01 0.506956584E+01 0.513590043E+01 0.520310301E+01 0.527118492E+01 0.534015768E+01 0.541003293E+01
 0.548082249E+01 0.555253833E+01 0.562519256E+01 0.569879746E+01 0.577336547E+01 0.584890919E+01 0.592544139E+01 0.600297500E+01
 0.608152313E+01 0.616109906E+01 0.624171622E+01 0.632338825E+01 0.640612895E+01 0.648995229E+01 0.657487246E+01 0.666090379E+01
 0.674806084E+01 0.683635832E+01 0.692581116E+01 0.701643448E+01 0.710824359E+01 0.720125402E+01 0.729548147E+01 0.739094188E+01
 0.748765137E+01 0.758562630E+01 0.768488321E+01 0.778543889E+01 0.788731032E+01 0.799051473E+01 0.809506956E+01 0.820099247E+01
 0.830830137E+01 0.841701439E+01 0.852714991E+01 0.863872653E+01 0.875176312E+01 0.886627878E+01 0.898229287E+01 0.909982498E+01
 0.921889498E+01 0.933952300E+01 0.946172942E+01 0.958553489E+01 0.971096034E+01 0.983802697E+01 0.996675625E+01 0.100971699E+02
 0.102292901E+02 0.103631390E+02 0.104987393E+02 0.106361139E+02 0.107752860E+02 0.109162792E+02 0.110591173E+02 0.112038244E+02
 0.113504249E+02 0.114989437E+02 0.116494059E+02 0.118018368E+02 0.119562623E+02 0.121127084E+02 0.122712016E+02 0.124317686E+02
 0.125944366E+02 0.127592332E+02 0.129261860E+02 0.130953235E+02 0.132666740E+02 0.134402667E+02 0.136161308E+02 0.137942961E+02
 0.139747926E+02 0.141576509E+02 0.143429019E+02 0.145305769E+02 0.147207076E+02 0.149133261E+02 0.151084650E+02 0.153061572E+02
 0.155064363E+02 0.157093359E+02 0.159148905E+02 0.161231347E+02 0.163341038E+02 0.165478334E+02 0.167643596E+02 0.169837190E+02
 0.172059487E+02 0.174310863E+02 0.176591697E+02 0.178902376E+02 0.181243290E+02 0.183614835E+02 0.186017410E+02 0.188451423E+02
 0.190917285E+02 0.193415413E+02 0.195946228E+02 0.198510158E+02 0.201107637E+02 0.203739104E+02 0.206405003E+02 0.209105785E+02
 0.211841907E+02 0.214613830E+02 0.217422023E+02 0.220266962E+02 0.223149126E+02 0.226069002E+02 0.229027085E+02 0.232023874E+02
 0.235059876E+02 0.238135603E+02 0.241251576E+02 0.244408321E+02 0.247606371E+02 0.250846268E+02 0.254128558E+02 0.257453797E+02
 0.260822545E+02 0.264235374E+02 0.267692859E+02 0.271195584E+02 0.274744142E+02 0.278339133E+02 0.281981164E+02 0.285670850E+02
 0.289408815E+02 0.293195691E+02 0.297032118E+02 0.300918743E+02 0.304856225E+02 0.308845229E+02 0.312886427E+02 0.316980505E+02
 0.321128153E+02 0.325330072E+02 0.329586973E+02 0.333899575E+02 0.338268606E+02 0.342694806E+02 0.347178922E+02 0.351721712E+02
 0.356323944E+02 0.360986396E+02 0.365709855E+02 0.370495120E+02 0.375342999E+02 0.380254313E+02 0.385229890E+02 0.390270572E+02
 0.395377211E+02 0.400550669E+02 0.405791821E+02 0.411101554E+02 0.416480763E+02 0.421930358E+02 0.427451261E+02 0.433044404E+02
 0.438710733E+02 0.444451205E+02 0.450266790E+02 0.456158471E+02 0.462127244E+02 0.468174118E+02 0.474300114E+02 0.480506268E+02
 0.486793629E+02 0.493163259E+02 0.499616235E+02 0.506153647E+02 0.512776600E+02 0.519486214E+02 0.526283622E+02 0.533169974E+02
 0.540146432E+02 0.547214176E+02 0.554374401E+02 0.561628317E+02 0.568977149E+02 0.576422139E+02 0.583964547E+02 0.591605645E+02
 0.599346727E+02 0.607189099E+02 0.615134088E+02 0.623183036E+02 0.631337303E+02 0.639598268E+02 0.647967326E+02 0.656445893E+02
 0.665035400E+02 0.673737300E+02 0.682553064E+02 0.691484180E+02 0.700532159E+02 0.709698529E+02 0.718984840E+02 0.728392662E+02
 0.737923583E+02 0.747579215E+02 0.757361190E+02 0.767271161E+02 0.777310802E+02 0.787481811E+02 0.797785906E+02 0.808224829E+02
 0.818800343E+02 0.829514237E+02 0.840368321E+02 0.851364429E+02 0.862504420E+02 0.873790175E+02 0.885223604E+02 0.896806637E+02
 0.908541233E+02 0.920429375E+02 0.932473071E+02 0.944674358E+02 0.957035296E+02 0.969557976E+02 0.982244514E+02 0.995097053E+02
 0.100811777E+03 0.102130885E+03 0.103467254E+03 0.104821110E+03 0.106192680E+03 0.107582197E+03 0.108989896E+03 0.110416014E+03
 0.111860793E+03 0.113324477E+03 0.114807313E+03 0.116309551E+03
   </PP_R>
   <PP_RAB type="real"  size="1148" columns="8">
 0.505584454E-06 0.512199960E-06 0.518902028E-06 0.525691793E-06 0.532570400E-06 0.539539013E-06 0.546598809E-06 0.553750982E-06
 0.560996741E-06 0.568337308E-06 0.575773927E-06 0.583307852E-06 0.590940358E-06 0.598672734E-06 0.606506288E-06 0.614442342E-06
 0.622482239E-06 0.630627336E-06 0.638879011E-06 0.647238658E-06 0.655707690E-06 0.664287538E-06 0.672979653E-06 0.681785502E-06
 0.690706575E-06 0.699744379E-06 0.708900441E-06 0.718176310E-06 0.727573551E-06 0.737093755E-06 0.746738529E-06 0.756509503E-06
 0.766408330E-06 0.776436681E-06 0.786596252E-06 0.796888760E-06 0.807315944E-06 0.817879566E-06 0.828581411E-06 0.839423289E-06
 0.850407031E-06 0.861534495E-06 0.872807559E-06 0.884228130E-06 0.895798138E-06 0.907519538E-06 0.919394311E-06 0.931424463E-06
 0.943612029E-06 0.955959067E-06 0.968467665E-06 0.981139936E-06 0.993978022E-06 0.100698409E-05 0.102016035E-05 0.103350901E-05
 0.104703234E-05 0.106073262E-05 0.107461216E-05 0.108867332E-05 0.110291847E-05 0.111735001E-05 0.113197038E-05 0.114678207E-05
 0.116178756E-05 0.117698939E-05 0.119239014E-05 0.120799241E-05 0.122379883E-05 0.123981208E-05 0.125603485E-05 0.127246990E-05
 0.128912000E-05 0.130598797E-05 0.132307665E-05 0.134038893E-05 0.135792774E-05 0.137569604E-05 0.139369684E-05 0.141193318E-05
 0.143040814E-05 0.144912484E-05 0.146808645E-05 0.148729616E-05 0.150675724E-05 0.152647296E-05 0.154644665E-05 0.156668170E-05
 0.158718152E-05 0.160794958E-05 0.162898939E-05 0.165030450E-05 0.167189852E-05 0.169377509E-05 0.171593791E-05 0.173839073E-05
 0.176113734E-05 0.178418159E-05 0.180752737E-05 0.183117862E-05 0.185513935E-05 0.187941361E-05 0.190400548E-05 0.192891914E-05
 0.195415879E-05 0.197972870E-05 0.200563319E-05 0.203187663E-05 0.205846347E-05 0.208539819E-05 0.211268535E-05 0.214032956E-05
 0.216833549E-05 0.219670787E-05 0.222545150E-05 0.225457124E-05 0.228407200E-05 0.231395878E-05 0.234423663E-05 0.237491065E-05
 0.240598604E-05 0.243746805E-05 0.246936200E-05 0.250167327E-05 0.253440733E-05 0.256756972E-05 0.260116603E-05 0.263520194E-05
 0.266968321E-05 0.270461566E-05 0.274000520E-05 0.277585780E-05 0.281217953E-05 0.284897653E-05 0.288625501E-05 0.292402127E-05
 0.296228170E-05 0.300104276E-05 0.304031101E-05 0.308009308E-05 0.312039569E-05 0.316122565E-05 0.320258987E-05 0.324449533E-05
 0.328694912E-05 0.332995842E-05 0.337353048E-05 0.341767268E-05 0.346239247E-05 0.350769742E-05 0.355359518E-05 0.360009350E-05
 0.364720024E-05 0.369492337E-05 0.374327096E-05 0.379225116E-05 0.384187226E-05 0.389214265E-05 0.394307082E-05 0.399466538E-05
 0.404693505E-05 0.409988866E-05 0.415353516E-05 0.420788361E-05 0.426294321E-05 0.431872326E-05 0.437523318E-05 0.443248252E-05
 0.449048097E-05 0.454923832E-05 0.460876450E-05 0.466906957E-05 0.473016373E-05 0.479205729E-05 0.485476073E-05 0.491828463E-05
 0.498263973E-05 0.504783691E-05 0.511388718E-05 0.518080172E-05 0.524859182E-05 0.531726895E-05 0.538684471E-05 0.545733086E-05
 0.552873931E-05 0.560108213E-05 0.567437155E-05 0.574861995E-05 0.582383987E-05 0.590004405E-05 0.597724534E-05 0.605545680E-05
 0.613469165E-05 0.621496328E-05 0.629628525E-05 0.637867131E-05 0.646213537E-05 0.654669156E-05 0.663235415E-05 0.671913762E-05
 0.680705665E-05 0.689612608E-05 0.698636098E-05 0.707777658E-05 0.717038835E-05 0.726421193E-05 0.735926318E-05 0.745555816E-05
 0.755311315E-05 0.765194464E-05 0.775206932E-05 0.785350412E-05 0.795626618E-05 0.806037286E-05 0.816584177E-05 0.827269073E-05
 0.838093779E-05 0.849060125E-05 0.860169964E-05 0.871425174E-05 0.882827657E-05 0.894379340E-05 0.906082175E-05 0.917938140E-05
 0.929949239E-05 0.942117501E-05 0.954444984E-05 0.966933770E-05 0.979585970E-05 0.992403722E-05 0.100538919E-04 0.101854458E-04
 0.103187210E-04 0.104537401E-04 0.105905259E-04 0.107291015E-04 0.108694904E-04 0.110117162E-04 0.111558031E-04 0.113017753E-04
 0.114496575E-04 0.115994747E-04 0.117512523E-04 0.119050159E-04 0.120607915E-04 0.122186053E-04 0.123784842E-04 0.125404550E-04
 0.127045452E-04 0.128707825E-04 0.130391949E-04 0.132098111E-04 0.133826597E-04 0.135577700E-04 0.137351716E-04 0.139148945E-04
 0.140969691E-04 0.142814261E-04 0.144682966E-04 0.146576124E-04 0.148494053E-04 0.150437078E-04 0.152405527E-04 0.154399733E-04
 0.156420033E-04 0.158466769E-04 0.160540285E-04 0.162640934E-04 0.164769069E-04 0.166925050E-04 0.169109242E-04 0.171322014E-04
 0.173563740E-04 0.175834799E-04 0.178135574E-04 0.180466454E-04 0.182827833E-04 0.185220111E-04 0.187643692E-04 0.190098985E-04
 0.192586405E-04 0.195106372E-04 0.197659313E-04 0.200245659E-04 0.202865847E-04 0.205520320E-04 0.208209526E-04 0.210933920E-04
 0.213693962E-04 0.216490120E-04 0.219322864E-04 0.222192675E-04 0.225100036E-04 0.228045440E-04 0.231029385E-04 0.234052374E-04
 0.237114918E-04 0.240217535E-04 0.243360750E-04 0.246545093E-04 0.249771103E-04 0.253039324E-04 0.256350310E-04 0.259704620E-04
 0.263102821E-04 0.266545486E-04 0.270033199E-04 0.273566547E-04 0.277146129E-04 0.280772550E-04 0.284446421E-04 0.288168365E-04
 0.291939010E-04 0.295758993E-04 0.299628960E-04 0.303549565E-04 0.307521471E-04 0.311545349E-04 0.315621878E-04 0.319751749E-04
 0.323935658E-04 0.328174313E-04 0.332468430E-04 0.336818736E-04 0.341225964E-04 0.345690861E-04 0.350214180E-04 0.354796686E-04
 0.359439153E-04 0.364142367E-04 0.368907122E-04 0.373734222E-04 0.378624485E-04 0.383578736E-04 0.388597813E-04 0.393682564E-04
 0.398833848E-04 0.404052536E-04 0.409339510E-04 0.414695663E-04 0.420121901E-04 0.425619140E-04 0.431188310E-04 0.436830352E-04
 0.442546219E-04 0.448336878E-04 0.454203306E-04 0.460146497E-04 0.466167452E-04 0.472267192E-04 0.478446745E-04 0.484707157E-04
 0.491049486E-04 0.497474804E-04 0.503984195E-04 0.510578762E-04 0.517259617E-04 0.524027891E-04 0.530884726E-04 0.537831282E-04
 0.544868733E-04 0.551998268E-04 0.559221093E-04 0.566538426E-04 0.573951507E-04 0.581461586E-04 0.589069934E-04 0.596777836E-04
 0.604586594E-04 0.612497530E-04 0.620511979E-04 0.628631296E-04 0.636856853E-04 0.645190040E-04 0.653632266E-04 0.662184958E-04
 0.670849560E-04 0.679627538E-04 0.688520374E-04 0.697529572E-04 0.706656654E-04 0.715903162E-04 0.725270660E-04 0.734760730E-04
 0.744374977E-04 0.754115025E-04 0.763982520E-04 0.773979130E-04 0.784106544E-04 0.794366474E-04 0.804760654E-04 0.815290841E-04
 0.825958813E-04 0.836766375E-04 0.847715352E-04 0.858807595E-04 0.870044978E-04 0.881429401E-04 0.892962788E-04 0.904647088E-04
 0.916484275E-04 0.928476350E-04 0.940625340E-04 0.952933298E-04 0.965402304E-04 0.978034465E-04 0.990831916E-04 0.100379682E-03
 0.101693137E-03 0.103023778E-03 0.104371831E-03 0.105737522E-03 0.107121084E-03 0.108522749E-03 0.109942754E-03 0.111381341E-03
 0.112838751E-03 0.114315231E-03 0.115811031E-03 0.117326403E-03 0.118861603E-03 0.120416891E-03 0.121992530E-03 0.123588786E-03
 0.125205929E-03 0.126844232E-03 0.128503972E-03 0.130185430E-03 0.131888889E-03 0.133614637E-03 0.135362967E-03 0.137134174E-03
 0.138928556E-03 0.140746418E-03 0.142588066E-03 0.144453812E-03 0.146343971E-03 0.148258862E-03 0.150198810E-03 0.152164141E-03
 0.154155189E-03 0.156172289E-03 0.158215783E-03 0.160286016E-03 0.162383337E-03 0.164508101E-03 0.166660668E-03 0.168841401E-03
 0.171050668E-03 0.173288843E-03 0.175556305E-03 0.177853436E-03 0.180180624E-03 0.182538264E-03 0.184926753E-03 0.187346495E-03
 0.189797899E-03 0.192281379E-03 0.194797356E-03 0.197346253E-03 0.199928503E-03 0.202544541E-03 0.205194809E-03 0.207879756E-03
 0.210599835E-03 0.213355506E-03 0.216147234E-03 0.218975492E-03 0.221840758E-03 0.224743515E-03 0.227684254E-03 0.230663472E-03
 0.233681673E-03 0.236739366E-03 0.239837070E-03 0.242975306E-03 0.246154606E-03 0.249375506E-03 0.252638551E-03 0.255944293E-03
 0.259293290E-03 0.262686109E-03 0.266123322E-03 0.269605510E-03 0.273133262E-03 0.276707175E-03 0.280327852E-03 0.283995904E-03
 0.287711953E-03 0.291476626E-03 0.295290559E-03 0.299154397E-03 0.303068792E-03 0.307034407E-03 0.311051912E-03 0.315121985E-03
 0.319245314E-03 0.323422597E-03 0.327654538E-03 0.331941854E-03 0.336285270E-03 0.340685518E-03 0.345143343E-03 0.349659497E-03
 0.354234746E-03 0.358869860E-03 0.363565625E-03 0.368322833E-03 0.373142288E-03 0.378024805E-03 0.382971210E-03 0.387982337E-03
 0.393059035E-03 0.398202160E-03 0.403412583E-03 0.408691183E-03 0.414038853E-03 0.419456496E-03 0.424945029E-03 0.430505378E-03
 0.436138484E-03 0.441845298E-03 0.447626785E-03 0.453483922E-03 0.459417699E-03 0.465429119E-03 0.471519197E-03 0.477688963E-03
 0.483939460E-03 0.490271744E-03 0.496686884E-03 0.503185966E-03 0.509770088E-03 0.516440362E-03 0.523197916E-03 0.530043891E-03
 0.536979445E-03 0.544005750E-03 0.551123993E-03 0.558335377E-03 0.565641122E-03 0.573042461E-03 0.580540645E-03 0.588136943E-03
 0.595832637E-03 0.603629028E-03 0.611527433E-03 0.619529189E-03 0.627635646E-03 0.635848175E-03 0.644168164E-03 0.652597019E-03