<UPF version="2.0.1">
  <PP_INFO>

 This pseudopotential file has been produced using the code
 ONCVPSP  (Optimized Norm-Conservinng Vanderbilt PSeudopotential)
 scalar-relativistic version 1.1.1, 08/28/2013 by D. R. Hamann
 The code is available through a link at URL www.mat-simresearch.com.
 Documentation with the package provides a full discription of the
 input data below.


 While it is not required under the terms of the GNU GPL, it is
 suggested that you cite D. R. Hamann, Phys. Rev. B 88, 085117 (2013)
 in any publication using these pseudopotentials.

    <PP_INPUTFILE>
# ATOM AND REFERENCE CONFIGURATION
# atsym  z    nc    nv    iexc   psfile
  Cu 29.00     3     5     3      upf
#
#   n    l    f        energy (Ha)
    1    0    2.00
    2    0    2.00
    2    1    6.00
    3    0    2.00
    3    1    6.00
    3    2    9.10
    4    0    0.50
    4    1    1.40
#
# PSEUDOPOTENTIAL AND OPTIMIZATION
# lmax
    2
#
#   l,   rc,     ep,   ncon, nbas, qcut
    0    1.60   -4.47    5    8    7.00
    1    1.97   -2.92    4    7    7.75
    2    1.97   -0.44    4    7    8.00
#
# LOCAL POTENTIAL
# lloc, lpopt,  rc(5),   dvloc0
    4    5      1.60       0.00
#
# VANDERBILT-KLEINMAN-BYLANDER PROJECTORs
# l, nproj, debl
    0    2    4.1871
    1    2    2.8261
    2    2    1.0000
#
# MODEL CORE CHARGE
# icmod, fcfact
    0    0.00
#
# LOG DERIVATIVE ANALYSIS
# epsh1, epsh2, depsh
   -5.00    2.00    0.02
#
# OUTPUT GRID
# rlmax, drl
    6.00    0.01
#
# TEST CONFIGURATIONS
# ncnf
    4
# nvcnf
#   n    l    f
    3
    3    0    2.00
    3    1    6.00
    3    2   10.00
#
    4
    3    0    2.00
    3    1    6.00
    3    2    9.00
    4    0    1.00
#
    3
    3    0    2.00
    3    1    6.00
    3    2    9.00
#
    4
    3    0    2.00
    3    1    6.00
    3    2   10.00
    4    0    1.00
#
    </PP_INPUTFILE>
  </PP_INFO>
  <!--                               -->
  <!-- END OF HUMAN READABLE SECTION -->
  <!--                               -->
    <PP_HEADER
       generated="Generated using ONCVPSP code by D. R. Hamann"
       author="anonymous"
       date="141006"
       comment=""
       element="Cu"
       pseudo_type="NC"
       relativistic="scalar"
       is_ultrasoft="F"
       is_paw="F"
       is_coulomb="F"
       has_so="F"
       has_wfc="F"
       has_gipaw="F"
       core_correction="F"
       functional="LDA"
       z_valence="   19.00"
       total_psenergy="  -1.75637471548E+02"
       rho_cutoff="   1.16772510186E+02"
       l_max="2"
       l_local="-1"
       mesh_size="  1162"
       number_of_wfc="0"
       number_of_proj="6"/>
 <PP_MESH>
   <PP_R type="real"  size="1162" columns="8">
 0.325487265E-04 0.329746222E-04 0.334060908E-04 0.338432051E-04 0.342860389E-04 0.347346672E-04 0.351891657E-04 0.356496113E-04
 0.361160817E-04 0.365886558E-04 0.370674135E-04 0.375524357E-04 0.380438044E-04 0.385416025E-04 0.390459143E-04 0.395568249E-04
 0.400744207E-04 0.405987892E-04 0.411300189E-04 0.416681998E-04 0.422134226E-04 0.427657797E-04 0.433253642E-04 0.438922709E-04
 0.444665954E-04 0.450484349E-04 0.456378877E-04 0.462350534E-04 0.468400330E-04 0.474529286E-04 0.480738439E-04 0.487028837E-04
 0.493401545E-04 0.499857639E-04 0.506398210E-04 0.513024363E-04 0.519737219E-04 0.526537912E-04 0.533427590E-04 0.540407420E-04
 0.547478579E-04 0.554642264E-04 0.561899684E-04 0.569252067E-04 0.576700655E-04 0.584246706E-04 0.591891497E-04 0.599636319E-04
 0.607482480E-04 0.615431308E-04 0.623484145E-04 0.631642352E-04 0.639907309E-04 0.648280411E-04 0.656763074E-04 0.665356732E-04
 0.674062836E-04 0.682882859E-04 0.691818291E-04 0.700870641E-04 0.710041441E-04 0.719332239E-04 0.728744606E-04 0.738280132E-04
 0.747940430E-04 0.757727131E-04 0.767641890E-04 0.777686383E-04 0.787862306E-04 0.798171379E-04 0.808615346E-04 0.819195971E-04
 0.829915041E-04 0.840774370E-04 0.851775791E-04 0.862921164E-04 0.874212373E-04 0.885651326E-04 0.897239956E-04 0.908980222E-04
 0.920874107E-04 0.932923623E-04 0.945130805E-04 0.957497716E-04 0.970026447E-04 0.982719114E-04 0.995577863E-04 0.100860487E-03
 0.102180233E-03 0.103517248E-03 0.104871757E-03 0.106243990E-03 0.107634179E-03 0.109042558E-03 0.110469365E-03 0.111914842E-03
 0.113379233E-03 0.114862785E-03 0.116365749E-03 0.117888380E-03 0.119430934E-03 0.120993672E-03 0.122576858E-03 0.124180760E-03
 0.125805648E-03 0.127451799E-03 0.129119488E-03 0.130809000E-03 0.132520618E-03 0.134254633E-03 0.136011337E-03 0.137791027E-03
 0.139594005E-03 0.141420574E-03 0.143271043E-03 0.145145726E-03 0.147044938E-03 0.148969002E-03 0.150918241E-03 0.152892987E-03
 0.154893571E-03 0.156920333E-03 0.158973615E-03 0.161053763E-03 0.163161130E-03 0.165296072E-03 0.167458949E-03 0.169650127E-03
 0.171869977E-03 0.174118873E-03 0.176397195E-03 0.178705329E-03 0.181043665E-03 0.183412597E-03 0.185812526E-03 0.188243859E-03
 0.190707005E-03 0.193202380E-03 0.195730408E-03 0.198291514E-03 0.200886133E-03 0.203514701E-03 0.206177664E-03 0.208875471E-03
 0.211608579E-03 0.214377449E-03 0.217182550E-03 0.220024355E-03 0.222903344E-03 0.225820005E-03 0.228774830E-03 0.231768318E-03
 0.234800976E-03 0.237873315E-03 0.240985856E-03 0.244139124E-03 0.247333652E-03 0.250569980E-03 0.253848655E-03 0.257170231E-03
 0.260535269E-03 0.263944339E-03 0.267398015E-03 0.270896883E-03 0.274441533E-03 0.278032564E-03 0.281670583E-03 0.285356205E-03
 0.289090053E-03 0.292872758E-03 0.296704959E-03 0.300587305E-03 0.304520450E-03 0.308505059E-03 0.312541807E-03 0.316631375E-03
 0.320774455E-03 0.324971746E-03 0.329223958E-03 0.333531810E-03 0.337896029E-03 0.342317354E-03 0.346796531E-03 0.351334318E-03
 0.355931481E-03 0.360588797E-03 0.365307054E-03 0.370087048E-03 0.374929588E-03 0.379835492E-03 0.384805589E-03 0.389840719E-03
 0.394941733E-03 0.400109493E-03 0.405344873E-03 0.410648757E-03 0.416022041E-03 0.421465634E-03 0.426980456E-03 0.432567439E-03
 0.438227527E-03 0.443961676E-03 0.449770855E-03 0.455656047E-03 0.461618246E-03 0.467658460E-03 0.473777709E-03 0.479977027E-03
 0.486257463E-03 0.492620077E-03 0.499065946E-03 0.505596157E-03 0.512211816E-03 0.518914040E-03 0.525703961E-03 0.532582728E-03
 0.539551502E-03 0.546611462E-03 0.553763800E-03 0.561009726E-03 0.568350464E-03 0.575787255E-03 0.583321354E-03 0.590954037E-03
 0.598686592E-03 0.606520327E-03 0.614456565E-03 0.622496647E-03 0.630641933E-03 0.638893800E-03 0.647253640E-03 0.655722868E-03
 0.664302915E-03 0.672995230E-03 0.681801284E-03 0.690722563E-03 0.699760576E-03 0.708916851E-03 0.718192934E-03 0.727590393E-03
 0.737110817E-03 0.746755814E-03 0.756527015E-03 0.766426070E-03 0.776454654E-03 0.786614460E-03 0.796907206E-03 0.807334631E-03
 0.817898497E-03 0.828600591E-03 0.839442720E-03 0.850426716E-03 0.861554437E-03 0.872827763E-03 0.884248598E-03 0.895818874E-03
 0.907540545E-03 0.919415593E-03 0.931446024E-03 0.943633871E-03 0.955981195E-03 0.968490082E-03 0.981162647E-03 0.994001030E-03
 0.100700740E-02 0.102018396E-02 0.103353293E-02 0.104705657E-02 0.106075717E-02 0.107463704E-02 0.108869852E-02 0.110294399E-02
 0.111737587E-02 0.113199659E-02 0.114680861E-02 0.116181445E-02 0.117701664E-02 0.119241774E-02 0.120802037E-02 0.122382716E-02
 0.123984077E-02 0.125606393E-02 0.127249936E-02 0.128914984E-02 0.130601820E-02 0.132310727E-02 0.134041995E-02 0.135795917E-02
 0.137572789E-02 0.139372910E-02 0.141196586E-02 0.143044125E-02 0.144915838E-02 0.146812043E-02 0.148733059E-02 0.150679211E-02
 0.152650829E-02 0.154648245E-02 0.156671797E-02 0.158721826E-02 0.160798680E-02 0.162902710E-02 0.165034270E-02 0.167193722E-02
 0.169381429E-02 0.171597763E-02 0.173843097E-02 0.176117811E-02 0.178422289E-02 0.180756921E-02 0.183122101E-02 0.185518230E-02
 0.187945711E-02 0.190404956E-02 0.192896379E-02 0.195420403E-02 0.197977453E-02 0.200567962E-02 0.203192367E-02 0.205851112E-02
 0.208544646E-02 0.211273425E-02 0.214037910E-02 0.216838568E-02 0.219675872E-02 0.222550301E-02 0.225462343E-02 0.228412487E-02
 0.231401235E-02 0.234429089E-02 0.237496562E-02 0.240604174E-02 0.243752447E-02 0.246941916E-02 0.250173118E-02 0.253446600E-02
 0.256762915E-02 0.260122624E-02 0.263526294E-02 0.266974500E-02 0.270467826E-02 0.274006862E-02 0.277592205E-02 0.281224463E-02
 0.284904247E-02 0.288632182E-02 0.292408895E-02 0.296235027E-02 0.300111223E-02 0.304038139E-02 0.308016437E-02 0.312046792E-02
 0.316129882E-02 0.320266400E-02 0.324457043E-02 0.328702521E-02 0.333003550E-02 0.337360857E-02 0.341775179E-02 0.346247262E-02
 0.350777861E-02 0.355367743E-02 0.360017683E-02 0.364728467E-02 0.369500890E-02 0.374335760E-02 0.379233894E-02 0.384196119E-02
 0.389223275E-02 0.394316210E-02 0.399475785E-02 0.404702872E-02 0.409998356E-02 0.415363130E-02 0.420798101E-02 0.426304189E-02
 0.431882323E-02 0.437533445E-02 0.443258513E-02 0.449058491E-02 0.454934362E-02 0.460887118E-02 0.466917765E-02 0.473027322E-02
 0.479216822E-02 0.485487310E-02 0.491839847E-02 0.498275506E-02 0.504795375E-02 0.511400556E-02 0.518092164E-02 0.524871331E-02
 0.531739203E-02 0.538696940E-02 0.545745718E-02 0.552886729E-02 0.560121178E-02 0.567450289E-02 0.574875301E-02 0.582397468E-02
 0.590018062E-02 0.597738370E-02 0.605559697E-02 0.613483365E-02 0.621510714E-02 0.629643099E-02 0.637881896E-02 0.646228496E-02
 0.654684310E-02 0.663250767E-02 0.671929315E-02 0.680721421E-02 0.689628571E-02 0.698652269E-02 0.707794042E-02 0.717055433E-02
 0.726438008E-02 0.735943353E-02 0.745573074E-02 0.755328799E-02 0.765212176E-02 0.775224876E-02 0.785368591E-02 0.795645034E-02
 0.806055944E-02 0.816603079E-02 0.827288222E-02 0.838113179E-02 0.849079779E-02 0.860189875E-02 0.871445345E-02 0.882848092E-02
 0.894400042E-02 0.906103148E-02 0.917959388E-02 0.929970765E-02 0.942139309E-02 0.954467077E-02 0.966956152E-02 0.979608645E-02
 0.992426694E-02 0.100541247E-01 0.101856815E-01 0.103189598E-01 0.104539821E-01 0.105907710E-01 0.107293499E-01 0.108697420E-01
 0.110119711E-01 0.111560613E-01 0.113020369E-01 0.114499225E-01 0.115997432E-01 0.117515243E-01 0.119052915E-01 0.120610706E-01
 0.122188882E-01 0.123787707E-01 0.125407453E-01 0.127048392E-01 0.128710804E-01 0.130394968E-01 0.132101168E-01 0.133829695E-01
 0.135580839E-01 0.137354896E-01 0.139152166E-01 0.140972954E-01 0.142817566E-01 0.144686315E-01 0.146579517E-01 0.148497490E-01
 0.150440560E-01 0.152409055E-01 0.154403307E-01 0.156423654E-01 0.158470437E-01 0.160544001E-01 0.162644698E-01 0.164772883E-01
 0.166928914E-01 0.169113157E-01 0.171325980E-01 0.173567758E-01 0.175838869E-01 0.178139697E-01 0.180470631E-01 0.182832066E-01
 0.185224399E-01 0.187648036E-01 0.190103385E-01 0.192590863E-01 0.195110889E-01 0.197663889E-01 0.200250295E-01 0.202870543E-01
 0.205525077E-01 0.208214346E-01 0.210938803E-01 0.213698909E-01 0.216495131E-01 0.219327941E-01 0.222197818E-01 0.225105247E-01
 0.228050719E-01 0.231034733E-01 0.234057791E-01 0.237120407E-01 0.240223096E-01 0.243366383E-01 0.246550800E-01 0.249776884E-01
 0.253045182E-01 0.256356244E-01 0.259710632E-01 0.263108911E-01 0.266551656E-01 0.270039449E-01 0.273572880E-01 0.277152544E-01
 0.280779049E-01 0.284453005E-01 0.288175035E-01 0.291945767E-01 0.295765839E-01 0.299635896E-01 0.303556592E-01 0.307528589E-01
 0.311552560E-01 0.315629184E-01 0.319759150E-01 0.323943156E-01 0.328181909E-01 0.332476126E-01 0.336826532E-01 0.341233863E-01
 0.345698863E-01 0.350222286E-01 0.354804898E-01 0.359447474E-01 0.364150796E-01 0.368915661E-01 0.373742873E-01 0.378633249E-01
 0.383587615E-01 0.388606808E-01 0.393691677E-01 0.398843080E-01 0.404061889E-01 0.409348985E-01 0.414705262E-01 0.420131626E-01
 0.425628992E-01 0.431198291E-01 0.436840464E-01 0.442556463E-01 0.448347256E-01 0.454213820E-01 0.460157148E-01 0.466178243E-01
 0.472278123E-01 0.478457820E-01 0.484718377E-01 0.491060853E-01 0.497486319E-01 0.503995861E-01 0.510590580E-01 0.517271590E-01
 0.524040021E-01 0.530897015E-01 0.537843732E-01 0.544881346E-01 0.552011046E-01 0.559234037E-01 0.566551540E-01 0.573964792E-01
 0.581475045E-01 0.589083569E-01 0.596791650E-01 0.604600589E-01 0.612511708E-01 0.620526342E-01 0.628645847E-01 0.636871594E-01
 0.645204975E-01 0.653647396E-01 0.662200286E-01 0.670865089E-01 0.679643269E-01 0.688536311E-01 0.697545718E-01 0.706673011E-01
 0.715919734E-01 0.725287448E-01 0.734777738E-01 0.744392208E-01 0.754132481E-01 0.764000204E-01 0.773997046E-01 0.784124694E-01
 0.794384862E-01 0.804779283E-01 0.815309713E-01 0.825977932E-01 0.836785744E-01 0.847734974E-01 0.858827474E-01 0.870065118E-01
 0.881449804E-01 0.892983458E-01 0.904668028E-01 0.916505489E-01 0.928497842E-01 0.940647113E-01 0.952955356E-01 0.965424650E-01
 0.978057104E-01 0.990854851E-01 0.100382006E+00 0.101695491E+00 0.103026163E+00 0.104374246E+00 0.105739970E+00 0.107123563E+00
 0.108525261E+00 0.109945299E+00 0.111383919E+00 0.112841363E+00 0.114317877E+00 0.115813711E+00 0.117329118E+00 0.118864354E+00
 0.120419679E+00 0.121995354E+00 0.123591647E+00 0.125208828E+00 0.126847168E+00 0.128506947E+00 0.130188443E+00 0.131891942E+00
 0.133617730E+00 0.135366101E+00 0.137137348E+00 0.138931772E+00 0.140749676E+00 0.142591367E+00 0.144457156E+00 0.146347358E+00
 0.148262294E+00 0.150202287E+00 0.152167664E+00 0.154158757E+00 0.156175904E+00 0.158219445E+00 0.160289726E+00 0.162387096E+00
 0.164511909E+00 0.166664526E+00 0.168845309E+00 0.171054627E+00 0.173292854E+00 0.175560368E+00 0.177857553E+00 0.180184795E+00
 0.182542489E+00 0.184931033E+00 0.187350832E+00 0.189802292E+00 0.192285830E+00 0.194801865E+00 0.197350821E+00 0.199933131E+00
 0.202549229E+00 0.205199559E+00 0.207884568E+00 0.210604710E+00 0.213360445E+00 0.216152238E+00 0.218980561E+00 0.221845893E+00
 0.224748717E+00 0.227689524E+00 0.230668811E+00 0.233687082E+00 0.236744846E+00 0.239842621E+00 0.242980930E+00 0.246160303E+00
 0.249381278E+00 0.252644399E+00 0.255950218E+00 0.259299292E+00 0.262692189E+00 0.266129482E+00 0.269611751E+00 0.273139585E+00
 0.276713580E+00 0.280334340E+00 0.284002478E+00 0.287718613E+00 0.291483373E+00 0.295297394E+00 0.299161321E+00 0.303075807E+00
 0.307041514E+00 0.311059112E+00 0.315129279E+00 0.319252704E+00 0.323430083E+00 0.327662123E+00 0.331949538E+00 0.336293054E+00
 0.340693404E+00 0.345151332E+00 0.349667591E+00 0.354242945E+00 0.358878167E+00 0.363574040E+00 0.368331358E+00 0.373150925E+00
 0.378033556E+00 0.382980075E+00 0.387991318E+00 0.393068133E+00 0.398211378E+00 0.403421921E+00 0.408700643E+00 0.414048437E+00
 0.419466206E+00 0.424954865E+00 0.430515343E+00 0.436148579E+00 0.441855526E+00 0.447637147E+00 0.453494419E+00 0.459428334E+00
 0.465439892E+00 0.471530112E+00 0.477700021E+00 0.483950662E+00 0.490283092E+00 0.496698382E+00 0.503197614E+00 0.509781888E+00
 0.516452316E+00 0.523210026E+00 0.530056160E+00 0.536991875E+00 0.544018342E+00 0.551136750E+00 0.558348301E+00 0.565654215E+00
 0.573055725E+00 0.580554083E+00 0.588150557E+00 0.595846429E+00 0.603643000E+00 0.611541589E+00 0.619543529E+00 0.627650174E+00
 0.635862893E+00 0.644183075E+00 0.652612125E+00 0.661151468E+00 0.669802547E+00 0.678566825E+00 0.687445782E+00 0.696440919E+00
 0.705553756E+00 0.714785833E+00 0.724138711E+00 0.733613970E+00 0.743213211E+00 0.752938058E+00 0.762790152E+00 0.772771160E+00
 0.782882768E+00 0.793126686E+00 0.803504643E+00 0.814018395E+00 0.824669717E+00 0.835460411E+00 0.846392300E+00 0.857467231E+00
 0.868687076E+00 0.880053731E+00 0.891569117E+00 0.903235181E+00 0.915053894E+00 0.927027252E+00 0.939157281E+00 0.951446030E+00
 0.963895575E+00 0.976508020E+00 0.989285498E+00 0.100223017E+01 0.101534422E+01 0.102862986E+01 0.104208935E+01 0.105572495E+01
 0.106953897E+01 0.108353374E+01 0.109771164E+01 0.111207505E+01 0.112662640E+01 0.114136816E+01 0.115630281E+01 0.117143288E+01
 0.118676093E+01 0.120228953E+01 0.121802133E+01 0.123395898E+01 0.125010517E+01 0.126646263E+01 0.128303413E+01 0.129982246E+01
 0.131683046E+01 0.133406101E+01 0.135151703E+01 0.136920145E+01 0.138711727E+01 0.140526751E+01 0.142365525E+01 0.144228359E+01
 0.146115568E+01 0.148027471E+01 0.149964391E+01 0.151926655E+01 0.153914595E+01 0.155928547E+01 0.157968851E+01 0.160035853E+01
 0.162129901E+01 0.164251349E+01 0.166400556E+01 0.168577885E+01 0.170783705E+01 0.173018387E+01 0.175282309E+01 0.177575855E+01
 0.179899412E+01 0.182253372E+01 0.184638133E+01 0.187054098E+01 0.189501676E+01 0.191981281E+01 0.194493330E+01 0.197038250E+01
 0.199616469E+01 0.202228424E+01 0.204874556E+01 0.207555313E+01 0.210271146E+01 0.213022516E+01 0.215809888E+01 0.218633731E+01
 0.221494525E+01 0.224392751E+01 0.227328901E+01 0.230303469E+01 0.233316960E+01 0.236369881E+01 0.239462750E+01 0.242596088E+01
 0.245770426E+01 0.248986299E+01 0.252244252E+01 0.255544834E+01 0.258888604E+01 0.262276128E+01 0.265707976E+01 0.269184730E+01
 0.272706976E+01 0.276275311E+01 0.279890336E+01 0.283552664E+01 0.287262913E+01 0.291021710E+01 0.294829691E+01 0.298687498E+01
 0.302595785E+01 0.306555210E+01 0.310566445E+01 0.314630165E+01 0.318747059E+01 0.322917822E+01 0.327143159E+01 0.331423784E+01
 0.335760420E+01 0.340153801E+01 0.344604668E+01 0.349113775E+01 0.353681882E+01 0.358309763E+01 0.362998198E+01 0.367747981E+01
 0.372559915E+01 0.377434812E+01 0.382373497E+01 0.387376803E+01 0.392445577E+01 0.397580675E+01 0.402782966E+01 0.408053328E+01
 0.413392651E+01 0.418801839E+01 0.424281806E+01 0.429833477E+01 0.435457791E+01 0.441155698E+01 0.446928162E+01 0.452776158E+01
 0.458700674E+01 0.464702711E+01 0.470783285E+01 0.476943422E+01 0.483184163E+01 0.489506564E+01 0.495911692E+01 0.502400631E+01
 0.508974476E+01 0.515634340E+01 0.522381347E+01 0.529216637E+01 0.536141367E+01 0.543156706E+01 0.550263839E+01 0.557463968E+01
 0.564758311E+01 0.572148098E+01 0.579634580E+01 0.587219022E+01 0.594902705E+01 0.602686928E+01 0.610573006E+01 0.618562273E+01
 0.626656078E+01 0.634855790E+01 0.643162794E+01 0.651578494E+01 0.660104312E+01 0.668741689E+01 0.677492085E+01 0.686356980E+01
 0.695337870E+01 0.704436273E+01 0.713653729E+01 0.722991793E+01 0.732452045E+01 0.742036082E+01 0.751745526E+01 0.761582017E+01
 0.771547216E+01 0.781642809E+01 0.791870502E+01 0.802232022E+01 0.812729122E+01 0.823363575E+01 0.834137178E+01 0.845051752E+01
 0.856109142E+01 0.867311217E+01 0.878659869E+01 0.890157017E+01 0.901804603E+01 0.913604597E+01 0.925558992E+01 0.937669809E+01
 0.949939094E+01 0.962368921E+01 0.974961390E+01 0.987718631E+01 0.100064280E+02 0.101373608E+02 0.102700068E+02 0.104043885E+02
 0.105405285E+02 0.106784499E+02 0.108181760E+02 0.109597304E+02 0.111031370E+02 0.112484201E+02 0.113956042E+02 0.115447142E+02
 0.116957752E+02 0.118488129E+02 0.120038530E+02 0.121609219E+02 0.123200459E+02 0.124812521E+02 0.126445676E+02 0.128100201E+02
 0.129776375E+02 0.131474482E+02 0.133194808E+02 0.134937644E+02 0.136703285E+02 0.138492030E+02 0.140304180E+02 0.142140041E+02
 0.143999925E+02 0.145884145E+02 0.147793019E+02 0.149726872E+02 0.151686028E+02 0.153670819E+02 0.155681582E+02 0.157718654E+02
 0.159782382E+02 0.161873113E+02 0.163991202E+02 0.166137005E+02 0.168310885E+02 0.170513211E+02 0.172744354E+02 0.175004691E+02
 0.177294604E+02 0.179614480E+02 0.181964712E+02 0.184345696E+02 0.186757835E+02 0.189201537E+02 0.191677214E+02 0.194185284E+02
 0.196726173E+02 0.199300309E+02 0.201908127E+02 0.204550068E+02 0.207226579E+02 0.209938111E+02 0.212685123E+02 0.215468080E+02
 0.218287451E+02 0.221143714E+02 0.224037350E+02 0.226968849E+02 0.229938706E+02 0.232947423E+02 0.235995510E+02 0.239083480E+02
 0.242211855E+02 0.245381165E+02 0.248591945E+02 0.251844738E+02 0.255140093E+02 0.258478567E+02 0.261860725E+02 0.265287138E+02
 0.268758385E+02 0.272275052E+02 0.275837735E+02 0.279447036E+02 0.283103563E+02 0.286807936E+02 0.290560779E+02 0.294362729E+02
 0.298214426E+02 0.302116522E+02 0.306069677E+02 0.310074558E+02 0.314131842E+02 0.318242216E+02 0.322406373E+02 0.326625018E+02
 0.330898863E+02 0.335228630E+02 0.339615053E+02 0.344058870E+02 0.348560835E+02 0.353121707E+02 0.357742258E+02 0.362423268E+02
 0.367165528E+02 0.371969841E+02 0.376837017E+02 0.381767879E+02 0.386763261E+02 0.391824007E+02 0.396950972E+02 0.402145023E+02
 0.407407037E+02 0.412737904E+02 0.418138525E+02 0.423609812E+02 0.429152691E+02 0.434768097E+02 0.440456979E+02 0.446220301E+02
 0.452059034E+02 0.457974167E+02 0.463966698E+02 0.470037641E+02 0.476188021E+02 0.482418878E+02 0.488731265E+02 0.495126249E+02
 0.501604910E+02 0.508168344E+02 0.514817659E+02 0.521553980E+02 0.528378444E+02 0.535292206E+02 0.542296434E+02 0.549392311E+02
 0.556581036E+02 0.563863825E+02 0.571241909E+02 0.578716533E+02 0.586288962E+02 0.593960476E+02 0.601732370E+02 0.609605958E+02
 0.617582571E+02 0.625663557E+02 0.633850282E+02 0.642144128E+02 0.650546499E+02 0.659058814E+02 0.667682511E+02 0.676419048E+02
 0.685269902E+02 0.694236567E+02 0.703320561E+02 0.712523417E+02 0.721846691E+02 0.731291960E+02 0.740860818E+02 0.750554884E+02
 0.760375795E+02 0.770325211E+02 0.780404814E+02 0.790616308E+02 0.800961417E+02 0.811441891E+02 0.822059501E+02 0.832816040E+02
 0.843713328E+02 0.854753205E+02 0.865937537E+02 0.877268215E+02 0.888747153E+02 0.900376292E+02 0.912157596E+02 0.924093057E+02
 0.936184692E+02 0.948434545E+02 0.960844685E+02 0.973417210E+02 0.986154245E+02 0.999057943E+02 0.101213048E+03 0.102537408E+03
 0.103879096E+03 0.105238340E+03 0.106615370E+03 0.108010418E+03 0.109423720E+03 0.110855515E+03 0.112306044E+03 0.113775554E+03
 0.115264292E+03 0.116772510E+03
   </PP_R>
   <PP_RAB type="real"  size="1162" columns="8">
 0.423133444E-06 0.428670089E-06 0.434279180E-06 0.439961666E-06 0.445718506E-06 0.451550673E-06 0.457459154E-06 0.463444946E-06
 0.469509062E-06 0.475652526E-06 0.481876376E-06 0.488181665E-06 0.494569457E-06 0.501040833E-06 0.507596886E-06 0.514238723E-06
 0.520967469E-06 0.527784259E-06 0.534690246E-06 0.541686597E-06 0.548774494E-06 0.555955136E-06 0.563229735E-06 0.570599521E-06
 0.578065741E-06 0.585629654E-06 0.593292540E-06 0.601055695E-06 0.608920429E-06 0.616888072E-06 0.624959970E-06 0.633137489E-06
 0.641422009E-06 0.649814931E-06 0.658317673E-06 0.666931672E-06 0.675658385E-06 0.684499285E-06 0.693455867E-06 0.702529645E-06
 0.711722153E-06 0.721034943E-06 0.730469589E-06 0.740027687E-06 0.749710851E-06 0.759520718E-06 0.769458946E-06 0.779527214E-06
 0.789727224E-06 0.800060700E-06 0.810529388E-06 0.821135058E-06 0.831879501E-06 0.842764534E-06 0.853791996E-06 0.864963751E-06
 0.876281687E-06 0.887747717E-06 0.899363778E-06 0.911131834E-06 0.923053873E-06 0.935131911E-06 0.947367988E-06 0.959764172E-06
 0.972322559E-06 0.985045271E-06 0.997934457E-06 0.101099230E-05 0.102422100E-05 0.103762279E-05 0.105119995E-05 0.106495476E-05
 0.107888955E-05 0.109300668E-05 0.110730853E-05 0.112179751E-05 0.113647608E-05 0.115134672E-05 0.116641194E-05 0.118167429E-05
 0.119713634E-05 0.121280071E-05 0.122867005E-05 0.124474703E-05 0.126103438E-05 0.127753485E-05 0.129425122E-05 0.131118633E-05
 0.132834303E-05 0.134572422E-05 0.136333284E-05 0.138117187E-05 0.139924432E-05 0.141755325E-05 0.143610174E-05 0.145489295E-05
 0.147393003E-05 0.149321621E-05 0.151275474E-05 0.153254894E-05 0.155260214E-05 0.157291773E-05 0.159349915E-05 0.161434987E-05
 0.163547343E-05 0.165687338E-05 0.167855335E-05 0.170051700E-05 0.172276804E-05 0.174531023E-05 0.176814738E-05 0.179128336E-05
 0.181472206E-05 0.183846746E-05 0.186252356E-05 0.188689443E-05 0.191158420E-05 0.193659702E-05 0.196193714E-05 0.198760883E-05
 0.201361642E-05 0.203996433E-05 0.206665699E-05 0.209369892E-05 0.212109470E-05 0.214884894E-05 0.217696634E-05 0.220545166E-05
 0.223430970E-05 0.226354535E-05 0.229316354E-05 0.232316928E-05 0.235356764E-05 0.238436376E-05 0.241556284E-05 0.244717016E-05
 0.247919106E-05 0.251163095E-05 0.254449530E-05 0.257778969E-05 0.261151972E-05 0.264569111E-05 0.268030963E-05 0.271538113E-05
 0.275091153E-05 0.278690684E-05 0.282337315E-05 0.286031661E-05 0.289774347E-05 0.293566006E-05 0.297407278E-05 0.301298813E-05
 0.305241268E-05 0.309235310E-05 0.313281613E-05 0.317380861E-05 0.321533748E-05 0.325740974E-05 0.330003251E-05 0.334321300E-05
 0.338695850E-05 0.343127640E-05 0.347617420E-05 0.352165948E-05 0.356773993E-05 0.361442333E-05 0.366171758E-05 0.370963067E-05
 0.375817069E-05 0.380734586E-05 0.385716447E-05 0.390763496E-05 0.395876584E-05 0.401056577E-05 0.406304349E-05 0.411620788E-05
 0.417006791E-05 0.422463270E-05 0.427991145E-05 0.433591353E-05 0.439264838E-05 0.445012560E-05 0.450835491E-05 0.456734613E-05
 0.462710925E-05 0.468765436E-05 0.474899170E-05 0.481113162E-05 0.487408464E-05 0.493786139E-05 0.500247265E-05 0.506792935E-05
 0.513424253E-05 0.520142341E-05 0.526948335E-05 0.533843384E-05 0.540828654E-05 0.547905325E-05 0.555074593E-05 0.562337671E-05
 0.569695785E-05 0.577150178E-05 0.584702112E-05 0.592352861E-05 0.600103720E-05 0.607955998E-05 0.615911021E-05 0.623970135E-05
 0.632134702E-05 0.640406100E-05 0.648785729E-05 0.657275005E-05 0.665875361E-05 0.674588252E-05 0.683415149E-05 0.692357546E-05
 0.701416953E-05 0.710594900E-05 0.719892940E-05 0.729312644E-05 0.738855603E-05 0.748523431E-05 0.758317761E-05 0.768240248E-05
 0.778292570E-05 0.788476425E-05 0.798793534E-05 0.809245642E-05 0.819834514E-05 0.830561939E-05 0.841429732E-05 0.852439729E-05
 0.863593789E-05 0.874893800E-05 0.886341669E-05 0.897939332E-05 0.909688749E-05 0.921591906E-05 0.933650814E-05 0.945867511E-05
 0.958244062E-05 0.970782558E-05 0.983485119E-05 0.996353891E-05 0.100939105E-04 0.102259880E-04 0.103597937E-04 0.104953502E-04
 0.106326805E-04 0.107718077E-04 0.109127554E-04 0.110555473E-04 0.112002077E-04 0.113467609E-04 0.114952318E-04 0.116456454E-04
 0.117980271E-04 0.119524027E-04 0.121087983E-04 0.122672403E-04 0.124277555E-04 0.125903711E-04 0.127551144E-04 0.129220134E-04
 0.130910962E-04 0.132623915E-04 0.134359281E-04 0.136117354E-04 0.137898432E-04 0.139702815E-04 0.141530807E-04 0.143382719E-04
 0.145258863E-04 0.147159556E-04 0.149085119E-04 0.151035878E-04 0.153012163E-04 0.155014307E-04 0.157042648E-04 0.159097531E-04
 0.161179301E-04 0.163288310E-04 0.165424916E-04 0.167589479E-04 0.169782366E-04 0.172003945E-04 0.174254594E-04 0.176534692E-04
 0.178844625E-04 0.181184784E-04 0.183555562E-04 0.185957363E-04 0.188390590E-04 0.190855656E-04 0.193352977E-04 0.195882975E-04
 0.198446078E-04 0.201042718E-04 0.203673336E-04 0.206338374E-04 0.209038284E-04 0.211773523E-04 0.214544551E-04 0.217351838E-04
 0.220195858E-04 0.223077092E-04 0.225996026E-04 0.228953154E-04 0.231948975E-04 0.234983997E-04 0.238058731E-04 0.241173698E-04
 0.244329424E-04 0.247526442E-04 0.250765293E-04 0.254046524E-04 0.257370689E-04 0.260738350E-04 0.264150077E-04 0.267606445E-04
 0.271108040E-04 0.274655453E-04 0.278249283E-04 0.281890138E-04 0.285578633E-04 0.289315392E-04 0.293101045E-04 0.296936234E-04
 0.300821605E-04 0.304757816E-04 0.308745531E-04 0.312785426E-04 0.316878181E-04 0.321024490E-04 0.325225053E-04 0.329480580E-04
 0.333791790E-04 0.338159411E-04 0.342584182E-04 0.347066851E-04 0.351608174E-04 0.356208921E-04 0.360869867E-04 0.365591801E-04
 0.370375522E-04 0.375221836E-04 0.380131564E-04 0.385105535E-04 0.390144590E-04 0.395249580E-04 0.400421369E-04 0.405660829E-04
 0.410968847E-04 0.416346320E-04 0.421794156E-04 0.427313277E-04 0.432904615E-04 0.438569114E-04 0.444307733E-04 0.450121440E-04
 0.456011220E-04 0.461978066E-04 0.468022988E-04 0.474147007E-04 0.480351157E-04 0.486636488E-04 0.493004062E-04 0.499454955E-04
 0.505990257E-04 0.512611072E-04 0.519318520E-04 0.526113734E-04 0.532997863E-04 0.539972069E-04 0.547037532E-04 0.554195445E-04
 0.561447019E-04 0.568793479E-04 0.576236066E-04 0.583776039E-04 0.591414671E-04 0.599153253E-04 0.606993094E-04 0.614935518E-04
 0.622981868E-04 0.631133503E-04 0.639391801E-04 0.647758158E-04 0.656233988E-04 0.664820723E-04 0.673519814E-04 0.682332731E-04
 0.691260964E-04 0.700306022E-04 0.709469434E-04 0.718752747E-04 0.728157531E-04 0.737685376E-04 0.747337891E-04 0.757116709E-04
 0.767023480E-04 0.777059881E-04 0.787227606E-04 0.797528375E-04 0.807963928E-04 0.818536029E-04 0.829246464E-04 0.840097044E-04
 0.851089603E-04 0.862225997E-04 0.873508110E-04 0.884937848E-04 0.896517142E-04 0.908247950E-04 0.920132254E-04 0.932172063E-04
 0.944369410E-04 0.956726359E-04 0.969244996E-04 0.981927439E-04 0.994775829E-04 0.100779234E-03 0.102097917E-03 0.103433854E-03
 0.104787273E-03 0.106158400E-03 0.107547469E-03 0.108954713E-03 0.110380371E-03 0.111824684E-03 0.113287895E-03 0.114770252E-03
 0.116272005E-03 0.117793409E-03 0.119334720E-03 0.120896199E-03 0.122478110E-03 0.124080720E-03 0.125704300E-03 0.127349124E-03
 0.129015470E-03 0.130703621E-03 0.132413860E-03 0.134146478E-03 0.135901767E-03 0.137680023E-03 0.139481548E-03 0.141306646E-03
 0.143155624E-03 0.145028797E-03 0.146926479E-03 0.148848993E-03 0.150796662E-03 0.152769816E-03 0.154768789E-03 0.156793918E-03
 0.158845546E-03 0.160924019E-03 0.163029688E-03 0.165162910E-03 0.167324045E-03 0.169513458E-03 0.171731519E-03 0.173978603E-03
 0.176255090E-03 0.178561365E-03 0.180897816E-03 0.183264840E-03 0.185662836E-03 0.188092210E-03 0.190553372E-03 0.193046737E-03
 0.195572728E-03 0.198131771E-03 0.200724299E-03 0.203350750E-03 0.206011568E-03 0.208707202E-03 0.211438108E-03 0.214204747E-03
 0.217007588E-03 0.219847104E-03 0.222723774E-03 0.225638085E-03 0.228590529E-03 0.231581606E-03 0.234611821E-03 0.237681685E-03
 0.240791718E-03 0.243942446E-03 0.247134401E-03 0.250368122E-03 0.253644155E-03 0.256963055E-03 0.260325383E-03 0.263731706E-03
 0.267182600E-03 0.270678649E-03 0.274220443E-03 0.277808582E-03 0.281443670E-03 0.285126323E-03 0.288857163E-03 0.292636821E-03
 0.296465935E-03 0.300345152E-03 0.304275129E-03 0.308256529E-03 0.312290024E-03 0.316376298E-03 0.320516040E-03 0.324709950E-03
 0.328958736E-03 0.333263118E-03 0.337623821E-03 0.342041584E-03 0.346517153E-03 0.351051284E-03 0.355644744E-03 0.360298308E-03
 0.365012763E-03 0.369788907E-03 0.374627546E-03 0.379529498E-03 0.384495591E-03 0.389526664E-03 0.394623569E-03 0.399787166E-03